MODEL 1
REMARK VINA RESULT:      -6.7      0.000      0.000
REMARK  8 active torsions:
REMARK  status: ('A' for Active; 'I' for Inactive)
REMARK    1  A    between atoms: O_16  and  C_25 
REMARK    2  A    between atoms: C_18  and  C_19 
REMARK    3  A    between atoms: C_18  and  C_20 
REMARK    4  A    between atoms: C_19  and  C_21 
REMARK    5  A    between atoms: C_20  and  C_22 
REMARK    6  A    between atoms: C_21  and  C_23 
REMARK    7  A    between atoms: C_22  and  C_24 
REMARK    8  A    between atoms: C_23  and  C_25 
ROOT
ATOM      1  F   *** d   1       2.273  -5.414  -8.160  0.00  0.00    -0.192 F 
ATOM      2  F   *** d   1       1.549  -7.349  -7.824  0.00  0.00    -0.192 F 
ATOM      3  C   *** d   1       1.468  -6.332  -8.662  0.00  0.00     0.384 C 
ENDROOT
BRANCH   3   4
ATOM      4  C   *** d   1       0.048  -5.791  -8.624  0.00  0.00     0.385 C 
ATOM      5  F   *** d   1      -0.794  -6.808  -8.623  0.00  0.00    -0.192 F 
ATOM      6  F   *** d   1      -0.191  -5.157  -9.759  0.00  0.00    -0.192 F 
BRANCH   4   7
ATOM      7  C   *** d   1      -0.323  -4.862  -7.482  0.00  0.00     0.388 C 
ATOM      8  F   *** d   1       0.431  -3.777  -7.537  0.00  0.00    -0.192 F 
ATOM      9  F   *** d   1      -0.004  -5.432  -6.334  0.00  0.00    -0.192 F 
BRANCH   7  10
ATOM     10  C   *** d   1      -1.754  -4.378  -7.394  0.00  0.00     0.396 C 
ATOM     11  F   *** d   1      -2.591  -5.380  -7.704  0.00  0.00    -0.187 F 
ATOM     12  F   *** d   1      -1.955  -3.413  -8.302  0.00  0.00    -0.187 F 
BRANCH  10  13
ATOM     13  C   *** d   1      -2.094  -3.814  -5.988  0.00  0.00     0.222 C 
ATOM     14  O   *** d   1      -2.572  -4.466  -5.081  0.00  0.00    -0.645 OA
BRANCH  13  15
ATOM     15  O   *** d   1      -1.783  -2.501  -5.900  0.00  0.00    -0.772 OA
ATOM     16  H   *** d   1      -2.279  -1.951  -6.528  0.00  0.00     0.167 HD
ENDBRANCH  13  15
ENDBRANCH  10  13
ENDBRANCH   7  10
ENDBRANCH   4   7
ENDBRANCH   3   4
BRANCH   3  17
ATOM     17  C   *** d   1       2.020  -6.772 -10.009  0.00  0.00     0.387 C 
ATOM     18  F   *** d   1       1.008  -7.012 -10.821  0.00  0.00    -0.192 F 
ATOM     19  F   *** d   1       2.615  -7.941  -9.861  0.00  0.00    -0.192 F 
BRANCH  17  20
ATOM     20  C   *** d   1       2.986  -5.839 -10.723  0.00  0.00     0.409 C 
ATOM     21  F   *** d   1       4.133  -5.837 -10.064  0.00  0.00    -0.189 F 
ATOM     22  F   *** d   1       2.523  -4.603 -10.623  0.00  0.00    -0.189 F 
BRANCH  20  23
ATOM     23  C   *** d   1       3.271  -6.126 -12.176  0.00  0.00     0.461 C 
ATOM     24  F   *** d   1       2.311  -5.685 -12.941  0.00  0.00    -0.165 F 
ATOM     25  F   *** d   1       3.407  -7.404 -12.412  0.00  0.00    -0.165 F 
ATOM     26  F   *** d   1       4.367  -5.536 -12.566  0.00  0.00    -0.165 F 
ENDBRANCH  20  23
ENDBRANCH  17  20
ENDBRANCH   3  17
TORSDOF 8
ENDMDL
MODEL 2
REMARK VINA RESULT:      -6.6      0.940      2.185
REMARK  8 active torsions:
REMARK  status: ('A' for Active; 'I' for Inactive)
REMARK    1  A    between atoms: O_16  and  C_25 
REMARK    2  A    between atoms: C_18  and  C_19 
REMARK    3  A    between atoms: C_18  and  C_20 
REMARK    4  A    between atoms: C_19  and  C_21 
REMARK    5  A    between atoms: C_20  and  C_22 
REMARK    6  A    between atoms: C_21  and  C_23 
REMARK    7  A    between atoms: C_22  and  C_24 
REMARK    8  A    between atoms: C_23  and  C_25 
ROOT
ATOM      1  F   *** d   1      -0.117  -5.177 -10.371  0.00  0.00    -0.192 F 
ATOM      2  F   *** d   1       1.278  -4.469  -8.980  0.00  0.00    -0.192 F 
ATOM      3  C   *** d   1       0.406  -5.439  -9.187  0.00  0.00     0.384 C 
ENDROOT
BRANCH   3   4
ATOM      4  C   *** d   1      -0.696  -5.325  -8.146  0.00  0.00     0.385 C 
ATOM      5  F   *** d   1      -0.281  -5.888  -7.026  0.00  0.00    -0.192 F 
ATOM      6  F   *** d   1      -1.719  -6.064  -8.535  0.00  0.00    -0.192 F 
BRANCH   4   7
ATOM      7  C   *** d   1      -1.217  -3.938  -7.819  0.00  0.00     0.388 C 
ATOM      8  F   *** d   1      -1.289  -3.224  -8.929  0.00  0.00    -0.192 F 
ATOM      9  F   *** d   1      -0.332  -3.303  -7.072  0.00  0.00    -0.192 F 
BRANCH   7  10
ATOM     10  C   *** d   1      -2.572  -3.824  -7.154  0.00  0.00     0.396 C 
ATOM     11  F   *** d   1      -3.223  -4.994  -7.250  0.00  0.00    -0.187 F 
ATOM     12  F   *** d   1      -3.312  -2.916  -7.805  0.00  0.00    -0.187 F 
BRANCH  10  13
ATOM     13  C   *** d   1      -2.459  -3.397  -5.665  0.00  0.00     0.222 C 
ATOM     14  O   *** d   1      -2.391  -2.247  -5.282  0.00  0.00    -0.645 OA
BRANCH  13  15
ATOM     15  O   *** d   1      -2.452  -4.475  -4.847  0.00  0.00    -0.772 OA
ATOM     16  H   *** d   1      -1.705  -4.474  -4.227  0.00  0.00     0.167 HD
ENDBRANCH  13  15
ENDBRANCH  10  13
ENDBRANCH   7  10
ENDBRANCH   4   7
ENDBRANCH   3   4
BRANCH   3  17
ATOM     17  C   *** d   1       1.161  -6.755  -9.275  0.00  0.00     0.387 C 
ATOM     18  F   *** d   1       0.303  -7.745  -9.118  0.00  0.00    -0.192 F 
ATOM     19  F   *** d   1       1.973  -6.848  -8.238  0.00  0.00    -0.192 F 
BRANCH  17  20
ATOM     20  C   *** d   1       1.971  -7.030 -10.533  0.00  0.00     0.409 C 
ATOM     21  F   *** d   1       1.133  -7.186 -11.546  0.00  0.00    -0.189 F 
ATOM     22  F   *** d   1       2.573  -8.201 -10.395  0.00  0.00    -0.189 F 
BRANCH  20  23
ATOM     23  C   *** d   1       3.005  -6.004 -10.923  0.00  0.00     0.461 C 
ATOM     24  F   *** d   1       3.671  -5.587  -9.882  0.00  0.00    -0.165 F 
ATOM     25  F   *** d   1       2.474  -4.957 -11.497  0.00  0.00    -0.165 F 
ATOM     26  F   *** d   1       3.877  -6.507 -11.753  0.00  0.00    -0.165 F 
ENDBRANCH  20  23
ENDBRANCH  17  20
ENDBRANCH   3  17
TORSDOF 8
ENDMDL
MODEL 3
REMARK VINA RESULT:      -6.5      3.930      6.674
REMARK  8 active torsions:
REMARK  status: ('A' for Active; 'I' for Inactive)
REMARK    1  A    between atoms: O_16  and  C_25 
REMARK    2  A    between atoms: C_18  and  C_19 
REMARK    3  A    between atoms: C_18  and  C_20 
REMARK    4  A    between atoms: C_19  and  C_21 
REMARK    5  A    between atoms: C_20  and  C_22 
REMARK    6  A    between atoms: C_21  and  C_23 
REMARK    7  A    between atoms: C_22  and  C_24 
REMARK    8  A    between atoms: C_23  and  C_25 
ROOT
ATOM      1  F   *** d   1       1.409  -7.310 -11.685  0.00  0.00    -0.192 F 
ATOM      2  F   *** d   1       3.054  -8.064 -10.634  0.00  0.00    -0.192 F 
ATOM      3  C   *** d   1       2.338  -6.969 -10.811  0.00  0.00     0.384 C 
ENDROOT
BRANCH   3   4
ATOM      4  C   *** d   1       3.226  -5.913 -11.450  0.00  0.00     0.385 C 
ATOM      5  F   *** d   1       4.370  -5.868 -10.793  0.00  0.00    -0.192 F 
ATOM      6  F   *** d   1       2.677  -4.728 -11.252  0.00  0.00    -0.192 F 
BRANCH   4   7
ATOM      7  C   *** d   1       3.529  -6.048 -12.930  0.00  0.00     0.388 C 
ATOM      8  F   *** d   1       2.405  -5.948 -13.619  0.00  0.00    -0.192 F 
ATOM      9  F   *** d   1       3.963  -7.270 -13.179  0.00  0.00    -0.192 F 
BRANCH   7  10
ATOM     10  C   *** d   1       4.495  -5.062 -13.552  0.00  0.00     0.396 C 
ATOM     11  F   *** d   1       5.598  -4.970 -12.794  0.00  0.00    -0.187 F 
ATOM     12  F   *** d   1       3.937  -3.844 -13.571  0.00  0.00    -0.187 F 
BRANCH  10  13
ATOM     13  C   *** d   1       4.877  -5.456 -15.005  0.00  0.00     0.222 C 
ATOM     14  O   *** d   1       4.102  -5.474 -15.940  0.00  0.00    -0.645 OA
BRANCH  13  15
ATOM     15  O   *** d   1       6.189  -5.770 -15.097  0.00  0.00    -0.772 OA
ATOM     16  H   *** d   1       6.606  -5.423 -15.902  0.00  0.00     0.167 HD
ENDBRANCH  13  15
ENDBRANCH  10  13
ENDBRANCH   7  10
ENDBRANCH   4   7
ENDBRANCH   3   4
BRANCH   3  17
ATOM     17  C   *** d   1       1.658  -6.620  -9.497  0.00  0.00     0.387 C 
ATOM     18  F   *** d   1       2.298  -5.604  -8.949  0.00  0.00    -0.192 F 
ATOM     19  F   *** d   1       1.831  -7.620  -8.652  0.00  0.00    -0.192 F 
BRANCH  17  20
ATOM     20  C   *** d   1       0.176  -6.281  -9.529  0.00  0.00     0.409 C 
ATOM     21  F   *** d   1      -0.038  -5.427 -10.516  0.00  0.00    -0.189 F 
ATOM     22  F   *** d   1      -0.125  -5.620  -8.422  0.00  0.00    -0.189 F 
BRANCH  20  23
ATOM     23  C   *** d   1      -0.789  -7.431  -9.675  0.00  0.00     0.461 C 
ATOM     24  F   *** d   1      -1.366  -7.417 -10.844  0.00  0.00    -0.165 F 
ATOM     25  F   *** d   1      -1.732  -7.407  -8.770  0.00  0.00    -0.165 F 
ATOM     26  F   *** d   1      -0.175  -8.578  -9.571  0.00  0.00    -0.165 F 
ENDBRANCH  20  23
ENDBRANCH  17  20
ENDBRANCH   3  17
TORSDOF 8
ENDMDL
MODEL 4
REMARK VINA RESULT:      -6.4      2.948      6.613
REMARK  8 active torsions:
REMARK  status: ('A' for Active; 'I' for Inactive)
REMARK    1  A    between atoms: O_16  and  C_25 
REMARK    2  A    between atoms: C_18  and  C_19 
REMARK    3  A    between atoms: C_18  and  C_20 
REMARK    4  A    between atoms: C_19  and  C_21 
REMARK    5  A    between atoms: C_20  and  C_22 
REMARK    6  A    between atoms: C_21  and  C_23 
REMARK    7  A    between atoms: C_22  and  C_24 
REMARK    8  A    between atoms: C_23  and  C_25 
ROOT
ATOM      1  F   *** d   1      -0.662  -3.162  -7.001  0.00  0.00    -0.192 F 
ATOM      2  F   *** d   1      -1.737  -3.240  -8.795  0.00  0.00    -0.192 F 
ATOM      3  C   *** d   1      -1.541  -3.891  -7.663  0.00  0.00     0.384 C 
ENDROOT
BRANCH   3   4
ATOM      4  C   *** d   1      -0.901  -5.231  -7.985  0.00  0.00     0.385 C 
ATOM      5  F   *** d   1      -1.849  -6.084  -8.326  0.00  0.00    -0.192 F 
ATOM      6  F   *** d   1      -0.386  -5.728  -6.874  0.00  0.00    -0.192 F 
BRANCH   4   7
ATOM      7  C   *** d   1       0.176  -5.261  -9.054  0.00  0.00     0.388 C 
ATOM      8  F   *** d   1       0.311  -4.052  -9.573  0.00  0.00    -0.192 F 
ATOM      9  F   *** d   1      -0.229  -6.012 -10.061  0.00  0.00    -0.192 F 
BRANCH   7  10
ATOM     10  C   *** d   1       1.566  -5.706  -8.653  0.00  0.00     0.396 C 
ATOM     11  F   *** d   1       1.497  -6.883  -8.013  0.00  0.00    -0.187 F 
ATOM     12  F   *** d   1       2.083  -4.825  -7.785  0.00  0.00    -0.187 F 
BRANCH  10  13
ATOM     13  C   *** d   1       2.519  -5.816  -9.874  0.00  0.00     0.222 C 
ATOM     14  O   *** d   1       3.061  -4.872 -10.413  0.00  0.00    -0.645 OA
BRANCH  13  15
ATOM     15  O   *** d   1       2.673  -7.104 -10.259  0.00  0.00    -0.772 OA
ATOM     16  H   *** d   1       3.341  -7.577  -9.738  0.00  0.00     0.167 HD
ENDBRANCH  13  15
ENDBRANCH  10  13
ENDBRANCH   7  10
ENDBRANCH   4   7
ENDBRANCH   3   4
BRANCH   3  17
ATOM     17  C   *** d   1      -2.845  -3.900  -6.881  0.00  0.00     0.387 C 
ATOM     18  F   *** d   1      -2.567  -4.051  -5.599  0.00  0.00    -0.192 F 
ATOM     19  F   *** d   1      -3.526  -4.984  -7.205  0.00  0.00    -0.192 F 
BRANCH  17  20
ATOM     20  C   *** d   1      -3.771  -2.702  -7.023  0.00  0.00     0.409 C 
ATOM     21  F   *** d   1      -4.827  -2.894  -6.250  0.00  0.00    -0.189 F 
ATOM     22  F   *** d   1      -4.242  -2.683  -8.260  0.00  0.00    -0.189 F 
BRANCH  20  23
ATOM     23  C   *** d   1      -3.191  -1.345  -6.712  0.00  0.00     0.461 C 
ATOM     24  F   *** d   1      -4.128  -0.491  -6.406  0.00  0.00    -0.165 F 
ATOM     25  F   *** d   1      -2.520  -0.849  -7.718  0.00  0.00    -0.165 F 
ATOM     26  F   *** d   1      -2.382  -1.402  -5.690  0.00  0.00    -0.165 F 
ENDBRANCH  20  23
ENDBRANCH  17  20
ENDBRANCH   3  17
TORSDOF 8
ENDMDL
MODEL 5
REMARK VINA RESULT:      -6.4      1.154      2.492
REMARK  8 active torsions:
REMARK  status: ('A' for Active; 'I' for Inactive)
REMARK    1  A    between atoms: O_16  and  C_25 
REMARK    2  A    between atoms: C_18  and  C_19 
REMARK    3  A    between atoms: C_18  and  C_20 
REMARK    4  A    between atoms: C_19  and  C_21 
REMARK    5  A    between atoms: C_20  and  C_22 
REMARK    6  A    between atoms: C_21  and  C_23 
REMARK    7  A    between atoms: C_22  and  C_24 
REMARK    8  A    between atoms: C_23  and  C_25 
ROOT
ATOM      1  F   *** d   1      -0.221  -4.382  -9.437  0.00  0.00    -0.192 F 
ATOM      2  F   *** d   1       1.229  -2.874  -9.368  0.00  0.00    -0.192 F 
ATOM      3  C   *** d   1       0.882  -4.018  -8.808  0.00  0.00     0.384 C 
ENDROOT
BRANCH   3   4
ATOM      4  C   *** d   1       0.533  -3.754  -7.352  0.00  0.00     0.385 C 
ATOM      5  F   *** d   1       0.224  -2.478  -7.215  0.00  0.00    -0.192 F 
ATOM      6  F   *** d   1       1.623  -3.916  -6.623  0.00  0.00    -0.192 F 
BRANCH   4   7
ATOM      7  C   *** d   1      -0.574  -4.584  -6.730  0.00  0.00     0.388 C 
ATOM      8  F   *** d   1      -0.276  -4.837  -5.467  0.00  0.00    -0.192 F 
ATOM      9  F   *** d   1      -0.608  -5.771  -7.307  0.00  0.00    -0.192 F 
BRANCH   7  10
ATOM     10  C   *** d   1      -1.977  -4.014  -6.727  0.00  0.00     0.396 C 
ATOM     11  F   *** d   1      -2.848  -4.952  -7.128  0.00  0.00    -0.187 F 
ATOM     12  F   *** d   1      -2.053  -3.013  -7.616  0.00  0.00    -0.187 F 
BRANCH  10  13
ATOM     13  C   *** d   1      -2.383  -3.469  -5.331  0.00  0.00     0.222 C 
ATOM     14  O   *** d   1      -2.783  -4.156  -4.413  0.00  0.00    -0.645 OA
BRANCH  13  15
ATOM     15  O   *** d   1      -2.228  -2.127  -5.266  0.00  0.00    -0.772 OA
ATOM     16  H   *** d   1      -1.306  -1.846  -5.379  0.00  0.00     0.167 HD
ENDBRANCH  13  15
ENDBRANCH  10  13
ENDBRANCH   7  10
ENDBRANCH   4   7
ENDBRANCH   3   4
BRANCH   3  17
ATOM     17  C   *** d   1       1.963  -5.045  -9.100  0.00  0.00     0.387 C 
ATOM     18  F   *** d   1       1.876  -6.015  -8.209  0.00  0.00    -0.192 F 
ATOM     19  F   *** d   1       3.143  -4.493  -8.880  0.00  0.00    -0.192 F 
BRANCH  17  20
ATOM     20  C   *** d   1       1.991  -5.678 -10.483  0.00  0.00     0.409 C 
ATOM     21  F   *** d   1       1.921  -4.715 -11.387  0.00  0.00    -0.189 F 
ATOM     22  F   *** d   1       0.884  -6.386 -10.640  0.00  0.00    -0.189 F 
BRANCH  20  23
ATOM     23  C   *** d   1       3.171  -6.558 -10.813  0.00  0.00     0.461 C 
ATOM     24  F   *** d   1       4.294  -5.906 -10.692  0.00  0.00    -0.165 F 
ATOM     25  F   *** d   1       3.117  -7.026 -12.032  0.00  0.00    -0.165 F 
ATOM     26  F   *** d   1       3.238  -7.579 -10.004  0.00  0.00    -0.165 F 
ENDBRANCH  20  23
ENDBRANCH  17  20
ENDBRANCH   3  17
TORSDOF 8
ENDMDL
MODEL 6
REMARK VINA RESULT:      -6.3      2.798      6.448
REMARK  8 active torsions:
REMARK  status: ('A' for Active; 'I' for Inactive)
REMARK    1  A    between atoms: O_16  and  C_25 
REMARK    2  A    between atoms: C_18  and  C_19 
REMARK    3  A    between atoms: C_18  and  C_20 
REMARK    4  A    between atoms: C_19  and  C_21 
REMARK    5  A    between atoms: C_20  and  C_22 
REMARK    6  A    between atoms: C_21  and  C_23 
REMARK    7  A    between atoms: C_22  and  C_24 
REMARK    8  A    between atoms: C_23  and  C_25 
ROOT
ATOM      1  F   *** d   1      -0.151  -5.180  -5.800  0.00  0.00    -0.192 F 
ATOM      2  F   *** d   1       0.124  -3.372  -6.818  0.00  0.00    -0.192 F 
ATOM      3  C   *** d   1      -0.630  -4.455  -6.794  0.00  0.00     0.384 C 
ENDROOT
BRANCH   3   4
ATOM      4  C   *** d   1      -0.411  -5.222  -8.089  0.00  0.00     0.385 C 
ATOM      5  F   *** d   1      -0.920  -4.522  -9.087  0.00  0.00    -0.192 F 
ATOM      6  F   *** d   1      -1.134  -6.327  -8.050  0.00  0.00    -0.192 F 
BRANCH   4   7
ATOM      7  C   *** d   1       1.012  -5.605  -8.450  0.00  0.00     0.388 C 
ATOM      8  F   *** d   1       1.333  -6.730  -7.834  0.00  0.00    -0.192 F 
ATOM      9  F   *** d   1       1.845  -4.708  -7.956  0.00  0.00    -0.192 F 
BRANCH   7  10
ATOM     10  C   *** d   1       1.345  -5.813  -9.912  0.00  0.00     0.396 C 
ATOM     11  F   *** d   1       1.131  -4.676 -10.591  0.00  0.00    -0.187 F 
ATOM     12  F   *** d   1       0.519  -6.733 -10.430  0.00  0.00    -0.187 F 
BRANCH  10  13
ATOM     13  C   *** d   1       2.808  -6.290 -10.116  0.00  0.00     0.222 C 
ATOM     14  O   *** d   1       3.771  -5.553 -10.176  0.00  0.00    -0.645 OA
BRANCH  13  15
ATOM     15  O   *** d   1       2.874  -7.638 -10.212  0.00  0.00    -0.772 OA
ATOM     16  H   *** d   1       3.727  -7.952 -10.552  0.00  0.00     0.167 HD
ENDBRANCH  13  15
ENDBRANCH  10  13
ENDBRANCH   7  10
ENDBRANCH   4   7
ENDBRANCH   3   4
BRANCH   3  17
ATOM     17  C   *** d   1      -2.053  -4.045  -6.448  0.00  0.00     0.387 C 
ATOM     18  F   *** d   1      -2.258  -4.277  -5.165  0.00  0.00    -0.192 F 
ATOM     19  F   *** d   1      -2.890  -4.852  -7.073  0.00  0.00    -0.192 F 
BRANCH  17  20
ATOM     20  C   *** d   1      -2.472  -2.612  -6.741  0.00  0.00     0.409 C 
ATOM     21  F   *** d   1      -1.850  -2.208  -7.836  0.00  0.00    -0.189 F 
ATOM     22  F   *** d   1      -2.013  -1.837  -5.772  0.00  0.00    -0.189 F 
BRANCH  20  23
ATOM     23  C   *** d   1      -3.948  -2.349  -6.905  0.00  0.00     0.461 C 
ATOM     24  F   *** d   1      -4.648  -3.033  -6.043  0.00  0.00    -0.165 F 
ATOM     25  F   *** d   1      -4.379  -2.661  -8.099  0.00  0.00    -0.165 F 
ATOM     26  F   *** d   1      -4.227  -1.090  -6.704  0.00  0.00    -0.165 F 
ENDBRANCH  20  23
ENDBRANCH  17  20
ENDBRANCH   3  17
TORSDOF 8
ENDMDL
MODEL 7
REMARK VINA RESULT:      -6.2      2.142      3.670
REMARK  8 active torsions:
REMARK  status: ('A' for Active; 'I' for Inactive)
REMARK    1  A    between atoms: O_16  and  C_25 
REMARK    2  A    between atoms: C_18  and  C_19 
REMARK    3  A    between atoms: C_18  and  C_20 
REMARK    4  A    between atoms: C_19  and  C_21 
REMARK    5  A    between atoms: C_20  and  C_22 
REMARK    6  A    between atoms: C_21  and  C_23 
REMARK    7  A    between atoms: C_22  and  C_24 
REMARK    8  A    between atoms: C_23  and  C_25 
ROOT
ATOM      1  F   *** d   1      -1.001  -3.721  -8.920  0.00  0.00    -0.192 F 
ATOM      2  F   *** d   1       0.323  -3.607  -7.303  0.00  0.00    -0.192 F 
ATOM      3  C   *** d   1      -0.725  -4.273  -7.753  0.00  0.00     0.384 C 
ENDROOT
BRANCH   3   4
ATOM      4  C   *** d   1      -1.895  -4.014  -6.816  0.00  0.00     0.385 C 
ATOM      5  F   *** d   1      -1.651  -4.604  -5.661  0.00  0.00    -0.192 F 
ATOM      6  F   *** d   1      -2.959  -4.635  -7.293  0.00  0.00    -0.192 F 
BRANCH   4   7
ATOM      7  C   *** d   1      -2.277  -2.571  -6.546  0.00  0.00     0.388 C 
ATOM      8  F   *** d   1      -1.274  -1.780  -6.888  0.00  0.00    -0.192 F 
ATOM      9  F   *** d   1      -2.413  -2.390  -5.245  0.00  0.00    -0.192 F 
BRANCH   7  10
ATOM     10  C   *** d   1      -3.505  -2.018  -7.236  0.00  0.00     0.396 C 
ATOM     11  F   *** d   1      -4.598  -2.297  -6.508  0.00  0.00    -0.187 F 
ATOM     12  F   *** d   1      -3.664  -2.627  -8.419  0.00  0.00    -0.187 F 
BRANCH  10  13
ATOM     13  C   *** d   1      -3.401  -0.487  -7.477  0.00  0.00     0.222 C 
ATOM     14  O   *** d   1      -3.218   0.029  -8.561  0.00  0.00    -0.645 OA
BRANCH  13  15
ATOM     15  O   *** d   1      -3.548   0.200  -6.321  0.00  0.00    -0.772 OA
ATOM     16  H   *** d   1      -3.972   1.064  -6.445  0.00  0.00     0.167 HD
ENDBRANCH  13  15
ENDBRANCH  10  13
ENDBRANCH   7  10
ENDBRANCH   4   7
ENDBRANCH   3   4
BRANCH   3  17
ATOM     17  C   *** d   1      -0.314  -5.717  -7.988  0.00  0.00     0.387 C 
ATOM     18  F   *** d   1      -1.404  -6.457  -8.070  0.00  0.00    -0.192 F 
ATOM     19  F   *** d   1       0.311  -6.160  -6.913  0.00  0.00    -0.192 F 
BRANCH  17  20
ATOM     20  C   *** d   1       0.554  -6.023  -9.198  0.00  0.00     0.409 C 
ATOM     21  F   *** d   1       1.556  -5.159  -9.226  0.00  0.00    -0.189 F 
ATOM     22  F   *** d   1      -0.151  -5.776 -10.291  0.00  0.00    -0.189 F 
BRANCH  20  23
ATOM     23  C   *** d   1       1.122  -7.416  -9.302  0.00  0.00     0.461 C 
ATOM     24  F   *** d   1       0.177  -8.302  -9.455  0.00  0.00    -0.165 F 
ATOM     25  F   *** d   1       1.808  -7.753  -8.241  0.00  0.00    -0.165 F 
ATOM     26  F   *** d   1       1.915  -7.527 -10.332  0.00  0.00    -0.165 F 
ENDBRANCH  20  23
ENDBRANCH  17  20
ENDBRANCH   3  17
TORSDOF 8
ENDMDL
MODEL 8
REMARK VINA RESULT:      -6.2      3.805      6.847
REMARK  8 active torsions:
REMARK  status: ('A' for Active; 'I' for Inactive)
REMARK    1  A    between atoms: O_16  and  C_25 
REMARK    2  A    between atoms: C_18  and  C_19 
REMARK    3  A    between atoms: C_18  and  C_20 
REMARK    4  A    between atoms: C_19  and  C_21 
REMARK    5  A    between atoms: C_20  and  C_22 
REMARK    6  A    between atoms: C_21  and  C_23 
REMARK    7  A    between atoms: C_22  and  C_24 
REMARK    8  A    between atoms: C_23  and  C_25 
ROOT
ATOM      1  F   *** d   1       3.665  -5.380 -10.307  0.00  0.00    -0.192 F 
ATOM      2  F   *** d   1       1.769  -4.889 -11.045  0.00  0.00    -0.192 F 
ATOM      3  C   *** d   1       2.598  -5.903 -10.884  0.00  0.00     0.384 C 
ENDROOT
BRANCH   3   4
ATOM      4  C   *** d   1       3.005  -6.414 -12.257  0.00  0.00     0.385 C 
ATOM      5  F   *** d   1       1.914  -6.725 -12.933  0.00  0.00    -0.192 F 
ATOM      6  F   *** d   1       3.645  -7.560 -12.106  0.00  0.00    -0.192 F 
BRANCH   4   7
ATOM      7  C   *** d   1       3.862  -5.509 -13.121  0.00  0.00     0.388 C 
ATOM      8  F   *** d   1       5.083  -5.447 -12.616  0.00  0.00    -0.192 F 
ATOM      9  F   *** d   1       3.408  -4.272 -13.045  0.00  0.00    -0.192 F 
BRANCH   7  10
ATOM     10  C   *** d   1       4.028  -5.867 -14.583  0.00  0.00     0.396 C 
ATOM     11  F   *** d   1       2.859  -5.709 -15.223  0.00  0.00    -0.187 F 
ATOM     12  F   *** d   1       4.354  -7.163 -14.689  0.00  0.00    -0.187 F 
BRANCH  10  13
ATOM     13  C   *** d   1       5.132  -5.020 -15.271  0.00  0.00     0.222 C 
ATOM     14  O   *** d   1       4.988  -3.875 -15.647  0.00  0.00    -0.645 OA
BRANCH  13  15
ATOM     15  O   *** d   1       6.283  -5.722 -15.391  0.00  0.00    -0.772 OA
ATOM     16  H   *** d   1       6.571  -6.123 -14.556  0.00  0.00     0.167 HD
ENDBRANCH  13  15
ENDBRANCH  10  13
ENDBRANCH   7  10
ENDBRANCH   4   7
ENDBRANCH   3   4
BRANCH   3  17
ATOM     17  C   *** d   1       1.967  -6.894  -9.920  0.00  0.00     0.387 C 
ATOM     18  F   *** d   1       2.906  -7.706  -9.473  0.00  0.00    -0.192 F 
ATOM     19  F   *** d   1       1.142  -7.674 -10.594  0.00  0.00    -0.192 F 
BRANCH  17  20
ATOM     20  C   *** d   1       1.215  -6.340  -8.719  0.00  0.00     0.409 C 
ATOM     21  F   *** d   1       1.829  -5.242  -8.309  0.00  0.00    -0.189 F 
ATOM     22  F   *** d   1       1.332  -7.200  -7.720  0.00  0.00    -0.189 F 
BRANCH  20  23
ATOM     23  C   *** d   1      -0.248  -6.025  -8.910  0.00  0.00     0.461 C 
ATOM     24  F   *** d   1      -0.555  -5.956 -10.175  0.00  0.00    -0.165 F 
ATOM     25  F   *** d   1      -0.588  -4.889  -8.360  0.00  0.00    -0.165 F 
ATOM     26  F   *** d   1      -1.001  -6.954  -8.387  0.00  0.00    -0.165 F 
ENDBRANCH  20  23
ENDBRANCH  17  20
ENDBRANCH   3  17
TORSDOF 8
ENDMDL
MODEL 9
REMARK VINA RESULT:      -6.1     17.025     18.516
REMARK  8 active torsions:
REMARK  status: ('A' for Active; 'I' for Inactive)
REMARK    1  A    between atoms: O_16  and  C_25 
REMARK    2  A    between atoms: C_18  and  C_19 
REMARK    3  A    between atoms: C_18  and  C_20 
REMARK    4  A    between atoms: C_19  and  C_21 
REMARK    5  A    between atoms: C_20  and  C_22 
REMARK    6  A    between atoms: C_21  and  C_23 
REMARK    7  A    between atoms: C_22  and  C_24 
REMARK    8  A    between atoms: C_23  and  C_25 
ROOT
ATOM      1  F   *** d   1      15.942   2.555 -12.917  0.00  0.00    -0.192 F 
ATOM      2  F   *** d   1      14.571   3.709 -11.836  0.00  0.00    -0.192 F 
ATOM      3  C   *** d   1      15.759   3.760 -12.410  0.00  0.00     0.384 C 
ENDROOT
BRANCH   3   4
ATOM      4  C   *** d   1      16.804   3.984 -11.329  0.00  0.00     0.385 C 
ATOM      5  F   *** d   1      17.057   5.277 -11.245  0.00  0.00    -0.192 F 
ATOM      6  F   *** d   1      17.942   3.444 -11.727  0.00  0.00    -0.192 F 
BRANCH   4   7
ATOM      7  C   *** d   1      16.501   3.465  -9.936  0.00  0.00     0.388 C 
ATOM      8  F   *** d   1      17.626   3.077  -9.358  0.00  0.00    -0.192 F 
ATOM      9  F   *** d   1      15.777   2.365 -10.026  0.00  0.00    -0.192 F 
BRANCH   7  10
ATOM     10  C   *** d   1      15.826   4.402  -8.957  0.00  0.00     0.396 C 
ATOM     11  F   *** d   1      14.947   5.179  -9.608  0.00  0.00    -0.187 F 
ATOM     12  F   *** d   1      16.741   5.222  -8.421  0.00  0.00    -0.187 F 
BRANCH  10  13
ATOM     13  C   *** d   1      15.114   3.635  -7.810  0.00  0.00     0.222 C 
ATOM     14  O   *** d   1      15.658   2.842  -7.070  0.00  0.00    -0.645 OA
BRANCH  13  15
ATOM     15  O   *** d   1      13.805   3.971  -7.737  0.00  0.00    -0.772 OA
ATOM     16  H   *** d   1      13.226   3.207  -7.589  0.00  0.00     0.167 HD
ENDBRANCH  13  15
ENDBRANCH  10  13
ENDBRANCH   7  10
ENDBRANCH   4   7
ENDBRANCH   3   4
BRANCH   3  17
ATOM     17  C   *** d   1      15.699   4.760 -13.553  0.00  0.00     0.387 C 
ATOM     18  F   *** d   1      15.456   4.106 -14.673  0.00  0.00    -0.192 F 
ATOM     19  F   *** d   1      16.900   5.281 -13.724  0.00  0.00    -0.192 F 
BRANCH  17  20
ATOM     20  C   *** d   1      14.701   5.903 -13.449  0.00  0.00     0.409 C 
ATOM     21  F   *** d   1      14.907   6.539 -12.307  0.00  0.00    -0.189 F 
ATOM     22  F   *** d   1      13.486   5.388 -13.348  0.00  0.00    -0.189 F 
BRANCH  20  23
ATOM     23  C   *** d   1      14.698   6.917 -14.566  0.00  0.00     0.461 C 
ATOM     24  F   *** d   1      14.039   7.990 -14.228  0.00  0.00    -0.165 F 
ATOM     25  F   *** d   1      14.155   6.450 -15.660  0.00  0.00    -0.165 F 
ATOM     26  F   *** d   1      15.911   7.295 -14.861  0.00  0.00    -0.165 F 
ENDBRANCH  20  23
ENDBRANCH  17  20
ENDBRANCH   3  17
TORSDOF 8
ENDMDL
MODEL 10
REMARK VINA RESULT:      -6.1     16.854     18.690
REMARK  8 active torsions:
REMARK  status: ('A' for Active; 'I' for Inactive)
REMARK    1  A    between atoms: O_16  and  C_25 
REMARK    2  A    between atoms: C_18  and  C_19 
REMARK    3  A    between atoms: C_18  and  C_20 
REMARK    4  A    between atoms: C_19  and  C_21 
REMARK    5  A    between atoms: C_20  and  C_22 
REMARK    6  A    between atoms: C_21  and  C_23 
REMARK    7  A    between atoms: C_22  and  C_24 
REMARK    8  A    between atoms: C_23  and  C_25 
ROOT
ATOM      1  F   *** d   1      15.096   6.037 -11.152  0.00  0.00    -0.192 F 
ATOM      2  F   *** d   1      16.931   7.019 -11.375  0.00  0.00    -0.192 F 
ATOM      3  C   *** d   1      16.292   5.910 -11.698  0.00  0.00     0.384 C 
ENDROOT
BRANCH   3   4
ATOM      4  C   *** d   1      16.996   4.738 -11.032  0.00  0.00     0.385 C 
ATOM      5  F   *** d   1      18.300   4.932 -11.103  0.00  0.00    -0.192 F 
ATOM      6  F   *** d   1      16.778   3.653 -11.752  0.00  0.00    -0.192 F 
BRANCH   4   7
ATOM      7  C   *** d   1      16.637   4.425  -9.592  0.00  0.00     0.388 C 
ATOM      8  F   *** d   1      16.203   5.524  -8.999  0.00  0.00    -0.192 F 
ATOM      9  F   *** d   1      17.731   4.100  -8.928  0.00  0.00    -0.192 F 
BRANCH   7  10
ATOM     10  C   *** d   1      15.588   3.364  -9.334  0.00  0.00     0.396 C 
ATOM     11  F   *** d   1      16.063   2.162  -9.694  0.00  0.00    -0.187 F 
ATOM     12  F   *** d   1      14.516   3.601 -10.102  0.00  0.00    -0.187 F 
BRANCH  10  13
ATOM     13  C   *** d   1      15.138   3.337  -7.848  0.00  0.00     0.222 C 
ATOM     14  O   *** d   1      15.779   2.844  -6.942  0.00  0.00    -0.645 OA
BRANCH  13  15
ATOM     15  O   *** d   1      13.937   3.940  -7.690  0.00  0.00    -0.772 OA
ATOM     16  H   *** d   1      13.508   3.715  -6.850  0.00  0.00     0.167 HD
ENDBRANCH  13  15
ENDBRANCH  10  13
ENDBRANCH   7  10
ENDBRANCH   4   7
ENDBRANCH   3   4
BRANCH   3  17
ATOM     17  C   *** d   1      16.129   5.870 -13.209  0.00  0.00     0.387 C 
ATOM     18  F   *** d   1      17.112   5.152 -13.720  0.00  0.00    -0.192 F 
ATOM     19  F   *** d   1      16.319   7.086 -13.688  0.00  0.00    -0.192 F 
BRANCH  17  20
ATOM     20  C   *** d   1      14.819   5.342 -13.771  0.00  0.00     0.409 C 
ATOM     21  F   *** d   1      14.340   4.433 -12.937  0.00  0.00    -0.189 F 
ATOM     22  F   *** d   1      15.080   4.685 -14.891  0.00  0.00    -0.189 F 
BRANCH  20  23
ATOM     23  C   *** d   1      13.734   6.351 -14.051  0.00  0.00     0.461 C 
ATOM     24  F   *** d   1      13.936   7.456 -13.388  0.00  0.00    -0.165 F 
ATOM     25  F   *** d   1      12.548   5.909 -13.727  0.00  0.00    -0.165 F 
ATOM     26  F   *** d   1      13.701   6.669 -15.316  0.00  0.00    -0.165 F 
ENDBRANCH  20  23
ENDBRANCH  17  20
ENDBRANCH   3  17
TORSDOF 8
ENDMDL
MODEL 11
REMARK VINA RESULT:      -6.1      0.988      2.292
REMARK  8 active torsions:
REMARK  status: ('A' for Active; 'I' for Inactive)
REMARK    1  A    between atoms: O_16  and  C_25 
REMARK    2  A    between atoms: C_18  and  C_19 
REMARK    3  A    between atoms: C_18  and  C_20 
REMARK    4  A    between atoms: C_19  and  C_21 
REMARK    5  A    between atoms: C_20  and  C_22 
REMARK    6  A    between atoms: C_21  and  C_23 
REMARK    7  A    between atoms: C_22  and  C_24 
REMARK    8  A    between atoms: C_23  and  C_25 
ROOT
ATOM      1  F   *** d   1       0.235  -7.228 -10.562  0.00  0.00    -0.192 F 
ATOM      2  F   *** d   1       0.034  -5.151 -10.731  0.00  0.00    -0.192 F 
ATOM      3  C   *** d   1       0.709  -6.089 -10.091  0.00  0.00     0.384 C 
ENDROOT
BRANCH   3   4
ATOM      4  C   *** d   1       0.363  -6.005  -8.613  0.00  0.00     0.385 C 
ATOM      5  F   *** d   1       1.411  -6.393  -7.910  0.00  0.00    -0.192 F 
ATOM      6  F   *** d   1      -0.570  -6.902  -8.349  0.00  0.00    -0.192 F 
BRANCH   4   7
ATOM      7  C   *** d   1      -0.107  -4.668  -8.073  0.00  0.00     0.388 C 
ATOM      8  F   *** d   1      -1.356  -4.456  -8.450  0.00  0.00    -0.192 F 
ATOM      9  F   *** d   1       0.582  -3.698  -8.646  0.00  0.00    -0.192 F 
BRANCH   7  10
ATOM     10  C   *** d   1      -0.077  -4.454  -6.574  0.00  0.00     0.396 C 
ATOM     11  F   *** d   1       0.926  -3.621  -6.256  0.00  0.00    -0.187 F 
ATOM     12  F   *** d   1       0.181  -5.619  -5.963  0.00  0.00    -0.187 F 
BRANCH  10  13
ATOM     13  C   *** d   1      -1.423  -3.899  -6.036  0.00  0.00     0.222 C 
ATOM     14  O   *** d   1      -2.317  -4.582  -5.578  0.00  0.00    -0.645 OA
BRANCH  13  15
ATOM     15  O   *** d   1      -1.471  -2.551  -6.137  0.00  0.00    -0.772 OA
ATOM     16  H   *** d   1      -2.377  -2.207  -6.189  0.00  0.00     0.167 HD
ENDBRANCH  13  15
ENDBRANCH  10  13
ENDBRANCH   7  10
ENDBRANCH   4   7
ENDBRANCH   3   4
BRANCH   3  17
ATOM     17  C   *** d   1       2.174  -5.979 -10.481  0.00  0.00     0.387 C 
ATOM     18  F   *** d   1       2.757  -7.142 -10.262  0.00  0.00    -0.192 F 
ATOM     19  F   *** d   1       2.772  -5.144  -9.651  0.00  0.00    -0.192 F 
BRANCH  17  20
ATOM     20  C   *** d   1       2.504  -5.547 -11.902  0.00  0.00     0.409 C 
ATOM     21  F   *** d   1       2.262  -4.251 -12.013  0.00  0.00    -0.189 F 
ATOM     22  F   *** d   1       1.650  -6.134 -12.725  0.00  0.00    -0.189 F 
BRANCH  20  23
ATOM     23  C   *** d   1       3.903  -5.816 -12.394  0.00  0.00     0.461 C 
ATOM     24  F   *** d   1       4.253  -4.958 -13.313  0.00  0.00    -0.165 F 
ATOM     25  F   *** d   1       4.029  -7.013 -12.905  0.00  0.00    -0.165 F 
ATOM     26  F   *** d   1       4.772  -5.709 -11.427  0.00  0.00    -0.165 F 
ENDBRANCH  20  23
ENDBRANCH  17  20
ENDBRANCH   3  17
TORSDOF 8
ENDMDL
MODEL 12
REMARK VINA RESULT:      -6.0     16.907     18.503
REMARK  8 active torsions:
REMARK  status: ('A' for Active; 'I' for Inactive)
REMARK    1  A    between atoms: O_16  and  C_25 
REMARK    2  A    between atoms: C_18  and  C_19 
REMARK    3  A    between atoms: C_18  and  C_20 
REMARK    4  A    between atoms: C_19  and  C_21 
REMARK    5  A    between atoms: C_20  and  C_22 
REMARK    6  A    between atoms: C_21  and  C_23 
REMARK    7  A    between atoms: C_22  and  C_24 
REMARK    8  A    between atoms: C_23  and  C_25 
ROOT
ATOM      1  F   *** d   1      14.948   5.948 -10.417  0.00  0.00    -0.192 F 
ATOM      2  F   *** d   1      16.643   5.469 -11.547  0.00  0.00    -0.192 F 
ATOM      3  C   *** d   1      15.371   5.157 -11.386  0.00  0.00     0.384 C 
ENDROOT
BRANCH   3   4
ATOM      4  C   *** d   1      15.287   3.720 -10.895  0.00  0.00     0.385 C 
ATOM      5  F   *** d   1      15.325   2.913 -11.939  0.00  0.00    -0.192 F 
ATOM      6  F   *** d   1      14.094   3.527 -10.362  0.00  0.00    -0.192 F 
BRANCH   4   7
ATOM      7  C   *** d   1      16.328   3.255  -9.893  0.00  0.00     0.388 C 
ATOM      8  F   *** d   1      17.536   3.426 -10.404  0.00  0.00    -0.192 F 
ATOM      9  F   *** d   1      16.221   1.949  -9.725  0.00  0.00    -0.192 F 
BRANCH   7  10
ATOM     10  C   *** d   1      16.349   3.912  -8.530  0.00  0.00     0.396 C 
ATOM     11  F   *** d   1      15.093   4.174  -8.135  0.00  0.00    -0.187 F 
ATOM     12  F   *** d   1      16.981   5.091  -8.613  0.00  0.00    -0.187 F 
BRANCH  10  13
ATOM     13  C   *** d   1      17.070   3.036  -7.470  0.00  0.00     0.222 C 
ATOM     14  O   *** d   1      18.275   2.900  -7.394  0.00  0.00    -0.645 OA
BRANCH  13  15
ATOM     15  O   *** d   1      16.183   2.449  -6.635  0.00  0.00    -0.772 OA
ATOM     16  H   *** d   1      15.747   3.080  -6.041  0.00  0.00     0.167 HD
ENDBRANCH  13  15
ENDBRANCH  10  13
ENDBRANCH   7  10
ENDBRANCH   4   7
ENDBRANCH   3   4
BRANCH   3  17
ATOM     17  C   *** d   1      14.622   5.512 -12.660  0.00  0.00     0.387 C 
ATOM     18  F   *** d   1      14.160   6.744 -12.547  0.00  0.00    -0.192 F 
ATOM     19  F   *** d   1      13.542   4.756 -12.742  0.00  0.00    -0.192 F 
BRANCH  17  20
ATOM     20  C   *** d   1      15.370   5.409 -13.979  0.00  0.00     0.409 C 
ATOM     21  F   *** d   1      15.336   4.150 -14.384  0.00  0.00    -0.189 F 
ATOM     22  F   *** d   1      16.648   5.670 -13.756  0.00  0.00    -0.189 F 
BRANCH  20  23
ATOM     23  C   *** d   1      14.895   6.288 -15.110  0.00  0.00     0.461 C 
ATOM     24  F   *** d   1      15.462   7.461 -15.067  0.00  0.00    -0.165 F 
ATOM     25  F   *** d   1      13.601   6.475 -15.082  0.00  0.00    -0.165 F 
ATOM     26  F   *** d   1      15.191   5.766 -16.268  0.00  0.00    -0.165 F 
ENDBRANCH  20  23
ENDBRANCH  17  20
ENDBRANCH   3  17
TORSDOF 8
ENDMDL
MODEL 13
REMARK VINA RESULT:      -6.0      2.192      3.965
REMARK  8 active torsions:
REMARK  status: ('A' for Active; 'I' for Inactive)
REMARK    1  A    between atoms: O_16  and  C_25 
REMARK    2  A    between atoms: C_18  and  C_19 
REMARK    3  A    between atoms: C_18  and  C_20 
REMARK    4  A    between atoms: C_19  and  C_21 
REMARK    5  A    between atoms: C_20  and  C_22 
REMARK    6  A    between atoms: C_21  and  C_23 
REMARK    7  A    between atoms: C_22  and  C_24 
REMARK    8  A    between atoms: C_23  and  C_25 
ROOT
ATOM      1  F   *** d   1       1.700  -6.484 -12.894  0.00  0.00    -0.192 F 
ATOM      2  F   *** d   1       2.269  -4.597 -12.189  0.00  0.00    -0.192 F 
ATOM      3  C   *** d   1       2.618  -5.870 -12.169  0.00  0.00     0.384 C 
ENDROOT
BRANCH   3   4
ATOM      4  C   *** d   1       2.509  -6.376 -10.739  0.00  0.00     0.385 C 
ATOM      5  F   *** d   1       3.561  -5.956 -10.060  0.00  0.00    -0.192 F 
ATOM      6  F   *** d   1       2.618  -7.692 -10.749  0.00  0.00    -0.192 F 
BRANCH   4   7
ATOM      7  C   *** d   1       1.260  -6.016  -9.956  0.00  0.00     0.388 C 
ATOM      8  F   *** d   1       0.238  -5.903 -10.788  0.00  0.00    -0.192 F 
ATOM      9  F   *** d   1       1.401  -4.809  -9.438  0.00  0.00    -0.192 F 
BRANCH   7  10
ATOM     10  C   *** d   1       0.810  -6.957  -8.860  0.00  0.00     0.396 C 
ATOM     11  F   *** d   1       1.881  -7.466  -8.232  0.00  0.00    -0.187 F 
ATOM     12  F   *** d   1       0.154  -7.992  -9.403  0.00  0.00    -0.187 F 
BRANCH  10  13
ATOM     13  C   *** d   1      -0.127  -6.258  -7.837  0.00  0.00     0.222 C 
ATOM     14  O   *** d   1      -1.307  -6.041  -8.021  0.00  0.00    -0.645 OA
BRANCH  13  15
ATOM     15  O   *** d   1       0.542  -5.928  -6.709  0.00  0.00    -0.772 OA
ATOM     16  H   *** d   1       0.103  -5.228  -6.200  0.00  0.00     0.167 HD
ENDBRANCH  13  15
ENDBRANCH  10  13
ENDBRANCH   7  10
ENDBRANCH   4   7
ENDBRANCH   3   4
BRANCH   3  17
ATOM     17  C   *** d   1       3.959  -6.014 -12.869  0.00  0.00     0.387 C 
ATOM     18  F   *** d   1       4.157  -7.289 -13.144  0.00  0.00    -0.192 F 
ATOM     19  F   *** d   1       4.918  -5.703 -12.015  0.00  0.00    -0.192 F 
BRANCH  17  20
ATOM     20  C   *** d   1       4.187  -5.217 -14.144  0.00  0.00     0.409 C 
ATOM     21  F   *** d   1       5.426  -5.431 -14.557  0.00  0.00    -0.189 F 
ATOM     22  F   *** d   1       4.136  -3.928 -13.845  0.00  0.00    -0.189 F 
BRANCH  20  23
ATOM     23  C   *** d   1       3.248  -5.478 -15.295  0.00  0.00     0.461 C 
ATOM     24  F   *** d   1       2.148  -4.790 -15.171  0.00  0.00    -0.165 F 
ATOM     25  F   *** d   1       2.916  -6.739 -15.388  0.00  0.00    -0.165 F 
ATOM     26  F   *** d   1       3.787  -5.130 -16.431  0.00  0.00    -0.165 F 
ENDBRANCH  20  23
ENDBRANCH  17  20
ENDBRANCH   3  17
TORSDOF 8
ENDMDL
MODEL 14
REMARK VINA RESULT:      -5.9      4.811      6.388
REMARK  8 active torsions:
REMARK  status: ('A' for Active; 'I' for Inactive)
REMARK    1  A    between atoms: O_16  and  C_25 
REMARK    2  A    between atoms: C_18  and  C_19 
REMARK    3  A    between atoms: C_18  and  C_20 
REMARK    4  A    between atoms: C_19  and  C_21 
REMARK    5  A    between atoms: C_20  and  C_22 
REMARK    6  A    between atoms: C_21  and  C_23 
REMARK    7  A    between atoms: C_22  and  C_24 
REMARK    8  A    between atoms: C_23  and  C_25 
ROOT
ATOM      1  F   *** d   1       3.150  -1.581  -5.945  0.00  0.00    -0.192 F 
ATOM      2  F   *** d   1       4.720  -1.937  -7.282  0.00  0.00    -0.192 F 
ATOM      3  C   *** d   1       3.459  -1.550  -7.228  0.00  0.00     0.384 C 
ENDROOT
BRANCH   3   4
ATOM      4  C   *** d   1       2.608  -2.585  -7.947  0.00  0.00     0.385 C 
ATOM      5  F   *** d   1       3.355  -3.641  -8.206  0.00  0.00    -0.192 F 
ATOM      6  F   *** d   1       2.278  -2.106  -9.133  0.00  0.00    -0.192 F 
BRANCH   4   7
ATOM      7  C   *** d   1       1.338  -3.054  -7.261  0.00  0.00     0.388 C 
ATOM      8  F   *** d   1       0.586  -2.007  -6.967  0.00  0.00    -0.192 F 
ATOM      9  F   *** d   1       1.643  -3.583  -6.090  0.00  0.00    -0.192 F 
BRANCH   7  10
ATOM     10  C   *** d   1       0.443  -4.021  -8.004  0.00  0.00     0.396 C 
ATOM     11  F   *** d   1       1.083  -4.492  -9.086  0.00  0.00    -0.187 F 
ATOM     12  F   *** d   1      -0.642  -3.372  -8.451  0.00  0.00    -0.187 F 
BRANCH  10  13
ATOM     13  C   *** d   1      -0.020  -5.199  -7.104  0.00  0.00     0.222 C 
ATOM     14  O   *** d   1       0.604  -6.228  -6.940  0.00  0.00    -0.645 OA
BRANCH  13  15
ATOM     15  O   *** d   1      -1.209  -4.928  -6.518  0.00  0.00    -0.772 OA
ATOM     16  H   *** d   1      -1.509  -5.636  -5.926  0.00  0.00     0.167 HD
ENDBRANCH  13  15
ENDBRANCH  10  13
ENDBRANCH   7  10
ENDBRANCH   4   7
ENDBRANCH   3   4
BRANCH   3  17
ATOM     17  C   *** d   1       3.376  -0.110  -7.709  0.00  0.00     0.387 C 
ATOM     18  F   *** d   1       2.155   0.340  -7.484  0.00  0.00    -0.192 F 
ATOM     19  F   *** d   1       3.502  -0.094  -9.023  0.00  0.00    -0.192 F 
BRANCH  17  20
ATOM     20  C   *** d   1       4.360   0.894  -7.129  0.00  0.00     0.409 C 
ATOM     21  F   *** d   1       5.344   1.065  -7.997  0.00  0.00    -0.189 F 
ATOM     22  F   *** d   1       4.926   0.354  -6.061  0.00  0.00    -0.189 F 
BRANCH  20  23
ATOM     23  C   *** d   1       3.817   2.248  -6.749  0.00  0.00     0.461 C 
ATOM     24  F   *** d   1       3.233   2.824  -7.762  0.00  0.00    -0.165 F 
ATOM     25  F   *** d   1       4.752   3.057  -6.322  0.00  0.00    -0.165 F 
ATOM     26  F   *** d   1       2.924   2.149  -5.803  0.00  0.00    -0.165 F 
ENDBRANCH  20  23
ENDBRANCH  17  20
ENDBRANCH   3  17
TORSDOF 8
ENDMDL
MODEL 15
REMARK VINA RESULT:      -5.9     17.222     18.802
REMARK  8 active torsions:
REMARK  status: ('A' for Active; 'I' for Inactive)
REMARK    1  A    between atoms: O_16  and  C_25 
REMARK    2  A    between atoms: C_18  and  C_19 
REMARK    3  A    between atoms: C_18  and  C_20 
REMARK    4  A    between atoms: C_19  and  C_21 
REMARK    5  A    between atoms: C_20  and  C_22 
REMARK    6  A    between atoms: C_21  and  C_23 
REMARK    7  A    between atoms: C_22  and  C_24 
REMARK    8  A    between atoms: C_23  and  C_25 
ROOT
ATOM      1  F   *** d   1      17.019   3.510 -10.951  0.00  0.00    -0.192 F 
ATOM      2  F   *** d   1      15.144   3.474 -10.023  0.00  0.00    -0.192 F 
ATOM      3  C   *** d   1      16.126   4.286 -10.365  0.00  0.00     0.384 C 
ENDROOT
BRANCH   3   4
ATOM      4  C   *** d   1      16.747   4.850  -9.097  0.00  0.00     0.385 C 
ATOM      5  F   *** d   1      15.779   5.189  -8.266  0.00  0.00    -0.192 F 
ATOM      6  F   *** d   1      17.349   5.988  -9.393  0.00  0.00    -0.192 F 
BRANCH   4   7
ATOM      7  C   *** d   1      17.737   3.978  -8.347  0.00  0.00     0.388 C 
ATOM      8  F   *** d   1      18.310   4.687  -7.390  0.00  0.00    -0.192 F 
ATOM      9  F   *** d   1      18.728   3.648  -9.155  0.00  0.00    -0.192 F 
BRANCH   7  10
ATOM     10  C   *** d   1      17.219   2.718  -7.687  0.00  0.00     0.396 C 
ATOM     11  F   *** d   1      17.176   1.721  -8.585  0.00  0.00    -0.187 F 
ATOM     12  F   *** d   1      15.960   2.917  -7.272  0.00  0.00    -0.187 F 
BRANCH  10  13
ATOM     13  C   *** d   1      18.083   2.300  -6.466  0.00  0.00     0.222 C 
ATOM     14  O   *** d   1      19.249   1.967  -6.529  0.00  0.00    -0.645 OA
BRANCH  13  15
ATOM     15  O   *** d   1      17.370   2.362  -5.319  0.00  0.00    -0.772 OA
ATOM     16  H   *** d   1      17.900   2.647  -4.558  0.00  0.00     0.167 HD
ENDBRANCH  13  15
ENDBRANCH  10  13
ENDBRANCH   7  10
ENDBRANCH   4   7
ENDBRANCH   3   4
BRANCH   3  17
ATOM     17  C   *** d   1      15.599   5.275 -11.393  0.00  0.00     0.387 C 
ATOM     18  F   *** d   1      16.624   5.890 -11.951  0.00  0.00    -0.192 F 
ATOM     19  F   *** d   1      14.938   6.229 -10.763  0.00  0.00    -0.192 F 
BRANCH  17  20
ATOM     20  C   *** d   1      14.709   4.740 -12.505  0.00  0.00     0.409 C 
ATOM     21  F   *** d   1      13.777   3.973 -11.964  0.00  0.00    -0.189 F 
ATOM     22  F   *** d   1      15.431   3.931 -13.264  0.00  0.00    -0.189 F 
BRANCH  20  23
ATOM     23  C   *** d   1      14.036   5.756 -13.394  0.00  0.00     0.461 C 
ATOM     24  F   *** d   1      14.393   5.604 -14.639  0.00  0.00    -0.165 F 
ATOM     25  F   *** d   1      14.321   6.984 -13.050  0.00  0.00    -0.165 F 
ATOM     26  F   *** d   1      12.738   5.629 -13.355  0.00  0.00    -0.165 F 
ENDBRANCH  20  23
ENDBRANCH  17  20
ENDBRANCH   3  17
TORSDOF 8
ENDMDL
MODEL 16
REMARK VINA RESULT:      -5.9      4.174      6.963
REMARK  8 active torsions:
REMARK  status: ('A' for Active; 'I' for Inactive)
REMARK    1  A    between atoms: O_16  and  C_25 
REMARK    2  A    between atoms: C_18  and  C_19 
REMARK    3  A    between atoms: C_18  and  C_20 
REMARK    4  A    between atoms: C_19  and  C_21 
REMARK    5  A    between atoms: C_20  and  C_22 
REMARK    6  A    between atoms: C_21  and  C_23 
REMARK    7  A    between atoms: C_22  and  C_24 
REMARK    8  A    between atoms: C_23  and  C_25 
ROOT
ATOM      1  F   *** d   1       1.523  -4.910 -12.298  0.00  0.00    -0.192 F 
ATOM      2  F   *** d   1       1.028  -6.916 -11.964  0.00  0.00    -0.192 F 
ATOM      3  C   *** d   1       2.035  -6.064 -11.910  0.00  0.00     0.384 C 
ENDROOT
BRANCH   3   4
ATOM      4  C   *** d   1       3.078  -6.488 -12.931  0.00  0.00     0.385 C 
ATOM      5  F   *** d   1       2.461  -6.871 -14.034  0.00  0.00    -0.192 F 
ATOM      6  F   *** d   1       3.681  -7.577 -12.488  0.00  0.00    -0.192 F 
BRANCH   4   7
ATOM      7  C   *** d   1       4.148  -5.480 -13.307  0.00  0.00     0.388 C 
ATOM      8  F   *** d   1       5.002  -5.353 -12.306  0.00  0.00    -0.192 F 
ATOM      9  F   *** d   1       3.600  -4.285 -13.430  0.00  0.00    -0.192 F 
BRANCH   7  10
ATOM     10  C   *** d   1       4.981  -5.752 -14.541  0.00  0.00     0.396 C 
ATOM     11  F   *** d   1       4.805  -7.023 -14.935  0.00  0.00    -0.187 F 
ATOM     12  F   *** d   1       6.280  -5.619 -14.240  0.00  0.00    -0.187 F 
BRANCH  10  13
ATOM     13  C   *** d   1       4.639  -4.781 -15.704  0.00  0.00     0.222 C 
ATOM     14  O   *** d   1       5.242  -3.754 -15.943  0.00  0.00    -0.645 OA
BRANCH  13  15
ATOM     15  O   *** d   1       3.584  -5.229 -16.421  0.00  0.00    -0.772 OA
ATOM     16  H   *** d   1       3.337  -4.632 -17.145  0.00  0.00     0.167 HD
ENDBRANCH  13  15
ENDBRANCH  10  13
ENDBRANCH   7  10
ENDBRANCH   4   7
ENDBRANCH   3   4
BRANCH   3  17
ATOM     17  C   *** d   1       2.477  -5.931 -10.462  0.00  0.00     0.387 C 
ATOM     18  F   *** d   1       2.638  -4.651 -10.185  0.00  0.00    -0.192 F 
ATOM     19  F   *** d   1       3.684  -6.454 -10.337  0.00  0.00    -0.192 F 
BRANCH  17  20
ATOM     20  C   *** d   1       1.589  -6.537  -9.386  0.00  0.00     0.409 C 
ATOM     21  F   *** d   1       0.333  -6.214  -9.649  0.00  0.00    -0.189 F 
ATOM     22  F   *** d   1       1.867  -5.949  -8.234  0.00  0.00    -0.189 F 
BRANCH  20  23
ATOM     23  C   *** d   1       1.667  -8.030  -9.191  0.00  0.00     0.461 C 
ATOM     24  F   *** d   1       0.503  -8.591  -9.370  0.00  0.00    -0.165 F 
ATOM     25  F   *** d   1       2.080  -8.354  -7.993  0.00  0.00    -0.165 F 
ATOM     26  F   *** d   1       2.486  -8.575 -10.048  0.00  0.00    -0.165 F 
ENDBRANCH  20  23
ENDBRANCH  17  20
ENDBRANCH   3  17
TORSDOF 8
ENDMDL
MODEL 17
REMARK VINA RESULT:      -5.8     17.193     18.497
REMARK  8 active torsions:
REMARK  status: ('A' for Active; 'I' for Inactive)
REMARK    1  A    between atoms: O_16  and  C_25 
REMARK    2  A    between atoms: C_18  and  C_19 
REMARK    3  A    between atoms: C_18  and  C_20 
REMARK    4  A    between atoms: C_19  and  C_21 
REMARK    5  A    between atoms: C_20  and  C_22 
REMARK    6  A    between atoms: C_21  and  C_23 
REMARK    7  A    between atoms: C_22  and  C_24 
REMARK    8  A    between atoms: C_23  and  C_25 
ROOT
ATOM      1  F   *** d   1      17.101   4.789 -10.461  0.00  0.00    -0.192 F 
ATOM      2  F   *** d   1      17.240   3.373 -11.996  0.00  0.00    -0.192 F 
ATOM      3  C   *** d   1      16.437   3.808 -11.043  0.00  0.00     0.384 C 
ENDROOT
BRANCH   3   4
ATOM      4  C   *** d   1      16.251   2.692 -10.026  0.00  0.00     0.385 C 
ATOM      5  F   *** d   1      16.153   1.544 -10.670  0.00  0.00    -0.192 F 
ATOM      6  F   *** d   1      15.079   2.850  -9.439  0.00  0.00    -0.192 F 
BRANCH   4   7
ATOM      7  C   *** d   1      17.302   2.544  -8.941  0.00  0.00     0.388 C 
ATOM      8  F   *** d   1      18.456   3.019  -9.380  0.00  0.00    -0.192 F 
ATOM      9  F   *** d   1      17.531   1.262  -8.726  0.00  0.00    -0.192 F 
BRANCH   7  10
ATOM     10  C   *** d   1      17.050   3.215  -7.608  0.00  0.00     0.396 C 
ATOM     11  F   *** d   1      15.774   3.023  -7.239  0.00  0.00    -0.187 F 
ATOM     12  F   *** d   1      17.219   4.539  -7.736  0.00  0.00    -0.187 F 
BRANCH  10  13
ATOM     13  C   *** d   1      18.009   2.698  -6.502  0.00  0.00     0.222 C 
ATOM     14  O   *** d   1      19.220   2.698  -6.586  0.00  0.00    -0.645 OA
BRANCH  13  15
ATOM     15  O   *** d   1      17.319   2.251  -5.427  0.00  0.00    -0.772 OA
ATOM     16  H   *** d   1      17.850   1.684  -4.846  0.00  0.00     0.167 HD
ENDBRANCH  13  15
ENDBRANCH  10  13
ENDBRANCH   7  10
ENDBRANCH   4   7
ENDBRANCH   3   4
BRANCH   3  17
ATOM     17  C   *** d   1      15.190   4.387 -11.690  0.00  0.00     0.387 C 
ATOM     18  F   *** d   1      14.664   5.278 -10.871  0.00  0.00    -0.192 F 
ATOM     19  F   *** d   1      14.278   3.437 -11.781  0.00  0.00    -0.192 F 
BRANCH  17  20
ATOM     20  C   *** d   1      15.332   5.035 -13.059  0.00  0.00     0.409 C 
ATOM     21  F   *** d   1      15.539   4.082 -13.954  0.00  0.00    -0.189 F 
ATOM     22  F   *** d   1      16.437   5.763 -13.063  0.00  0.00    -0.189 F 
BRANCH  20  23
ATOM     23  C   *** d   1      14.190   5.897 -13.534  0.00  0.00     0.461 C 
ATOM     24  F   *** d   1      14.183   5.998 -14.834  0.00  0.00    -0.165 F 
ATOM     25  F   *** d   1      14.245   7.108 -13.046  0.00  0.00    -0.165 F 
ATOM     26  F   *** d   1      13.040   5.387 -13.189  0.00  0.00    -0.165 F 
ENDBRANCH  20  23
ENDBRANCH  17  20
ENDBRANCH   3  17
TORSDOF 8
ENDMDL
MODEL 18
REMARK VINA RESULT:      -5.8     17.409     18.889
REMARK  8 active torsions:
REMARK  status: ('A' for Active; 'I' for Inactive)
REMARK    1  A    between atoms: O_16  and  C_25 
REMARK    2  A    between atoms: C_18  and  C_19 
REMARK    3  A    between atoms: C_18  and  C_20 
REMARK    4  A    between atoms: C_19  and  C_21 
REMARK    5  A    between atoms: C_20  and  C_22 
REMARK    6  A    between atoms: C_21  and  C_23 
REMARK    7  A    between atoms: C_22  and  C_24 
REMARK    8  A    between atoms: C_23  and  C_25 
ROOT
ATOM      1  F   *** d   1      16.731   5.331 -11.366  0.00  0.00    -0.192 F 
ATOM      2  F   *** d   1      14.941   5.946 -10.471  0.00  0.00    -0.192 F 
ATOM      3  C   *** d   1      15.527   4.904 -11.032  0.00  0.00     0.384 C 
ENDROOT
BRANCH   3   4
ATOM      4  C   *** d   1      14.775   4.560 -12.308  0.00  0.00     0.385 C 
ATOM      5  F   *** d   1      13.742   3.798 -11.998  0.00  0.00    -0.192 F 
ATOM      6  F   *** d   1      15.547   3.792 -13.056  0.00  0.00    -0.192 F 
BRANCH   4   7
ATOM      7  C   *** d   1      14.281   5.708 -13.168  0.00  0.00     0.388 C 
ATOM      8  F   *** d   1      14.489   6.851 -12.536  0.00  0.00    -0.192 F 
ATOM      9  F   *** d   1      12.969   5.631 -13.290  0.00  0.00    -0.192 F 
BRANCH   7  10
ATOM     10  C   *** d   1      14.881   5.874 -14.548  0.00  0.00     0.396 C 
ATOM     11  F   *** d   1      14.007   6.504 -15.348  0.00  0.00    -0.187 F 
ATOM     12  F   *** d   1      15.097   4.666 -15.088  0.00  0.00    -0.187 F 
BRANCH  10  13
ATOM     13  C   *** d   1      16.226   6.648 -14.511  0.00  0.00     0.222 C 
ATOM     14  O   *** d   1      17.298   6.154 -14.227  0.00  0.00    -0.645 OA
BRANCH  13  15
ATOM     15  O   *** d   1      16.052   7.947 -14.846  0.00  0.00    -0.772 OA
ATOM     16  H   *** d   1      15.156   8.270 -14.657  0.00  0.00     0.167 HD
ENDBRANCH  13  15
ENDBRANCH  10  13
ENDBRANCH   7  10
ENDBRANCH   4   7
ENDBRANCH   3   4
BRANCH   3  17
ATOM     17  C   *** d   1      15.676   3.814  -9.984  0.00  0.00     0.387 C 
ATOM     18  F   *** d   1      15.951   2.677 -10.595  0.00  0.00    -0.192 F 
ATOM     19  F   *** d   1      14.503   3.612  -9.412  0.00  0.00    -0.192 F 
BRANCH  17  20
ATOM     20  C   *** d   1      16.707   4.018  -8.884  0.00  0.00     0.409 C 
ATOM     21  F   *** d   1      16.509   5.207  -8.339  0.00  0.00    -0.189 F 
ATOM     22  F   *** d   1      17.905   4.085  -9.442  0.00  0.00    -0.189 F 
BRANCH  20  23
ATOM     23  C   *** d   1      16.750   2.989  -7.783  0.00  0.00     0.461 C 
ATOM     24  F   *** d   1      17.597   3.329  -6.852  0.00  0.00    -0.165 F 
ATOM     25  F   *** d   1      17.100   1.807  -8.220  0.00  0.00    -0.165 F 
ATOM     26  F   *** d   1      15.585   2.865  -7.208  0.00  0.00    -0.165 F 
ENDBRANCH  20  23
ENDBRANCH  17  20
ENDBRANCH   3  17
TORSDOF 8
ENDMDL
MODEL 19
REMARK VINA RESULT:      -5.8      2.953      5.974
REMARK  8 active torsions:
REMARK  status: ('A' for Active; 'I' for Inactive)
REMARK    1  A    between atoms: O_16  and  C_25 
REMARK    2  A    between atoms: C_18  and  C_19 
REMARK    3  A    between atoms: C_18  and  C_20 
REMARK    4  A    between atoms: C_19  and  C_21 
REMARK    5  A    between atoms: C_20  and  C_22 
REMARK    6  A    between atoms: C_21  and  C_23 
REMARK    7  A    between atoms: C_22  and  C_24 
REMARK    8  A    between atoms: C_23  and  C_25 
ROOT
ATOM      1  F   *** d   1       0.378  -5.155 -10.471  0.00  0.00    -0.192 F 
ATOM      2  F   *** d   1      -0.152  -7.145 -10.098  0.00  0.00    -0.192 F 
ATOM      3  C   *** d   1       0.839  -6.283  -9.964  0.00  0.00     0.384 C 
ENDROOT
BRANCH   3   4
ATOM      4  C   *** d   1       2.002  -6.750 -10.826  0.00  0.00     0.385 C 
ATOM      5  F   *** d   1       1.528  -7.176 -11.982  0.00  0.00    -0.192 F 
ATOM      6  F   *** d   1       2.536  -7.821 -10.266  0.00  0.00    -0.192 F 
BRANCH   4   7
ATOM      7  C   *** d   1       3.118  -5.761 -11.102  0.00  0.00     0.388 C 
ATOM      8  F   *** d   1       4.053  -5.884 -10.175  0.00  0.00    -0.192 F 
ATOM      9  F   *** d   1       2.660  -4.531 -10.950  0.00  0.00    -0.192 F 
BRANCH   7  10
ATOM     10  C   *** d   1       3.831  -5.844 -12.434  0.00  0.00     0.396 C 
ATOM     11  F   *** d   1       3.770  -7.100 -12.902  0.00  0.00    -0.187 F 
ATOM     12  F   *** d   1       5.130  -5.560 -12.263  0.00  0.00    -0.187 F 
BRANCH  10  13
ATOM     13  C   *** d   1       3.240  -4.856 -13.476  0.00  0.00     0.222 C 
ATOM     14  O   *** d   1       2.196  -5.027 -14.072  0.00  0.00    -0.645 OA
BRANCH  13  15
ATOM     15  O   *** d   1       4.038  -3.775 -13.631  0.00  0.00    -0.772 OA
ATOM     16  H   *** d   1       4.950  -3.932 -13.339  0.00  0.00     0.167 HD
ENDBRANCH  13  15
ENDBRANCH  10  13
ENDBRANCH   7  10
ENDBRANCH   4   7
ENDBRANCH   3   4
BRANCH   3  17
ATOM     17  C   *** d   1       1.099  -6.073  -8.481  0.00  0.00     0.387 C 
ATOM     18  F   *** d   1       2.150  -5.287  -8.344  0.00  0.00    -0.192 F 
ATOM     19  F   *** d   1       1.471  -7.223  -7.949  0.00  0.00    -0.192 F 
BRANCH  17  20
ATOM     20  C   *** d   1      -0.028  -5.505  -7.633  0.00  0.00     0.409 C 
ATOM     21  F   *** d   1       0.243  -5.744  -6.360  0.00  0.00    -0.189 F 
ATOM     22  F   *** d   1      -1.131  -6.190  -7.891  0.00  0.00    -0.189 F 
BRANCH  20  23
ATOM     23  C   *** d   1      -0.331  -4.035  -7.789  0.00  0.00     0.461 C 
ATOM     24  F   *** d   1      -1.369  -3.846  -8.554  0.00  0.00    -0.165 F 
ATOM     25  F   *** d   1       0.669  -3.375  -8.311  0.00  0.00    -0.165 F 
ATOM     26  F   *** d   1      -0.605  -3.486  -6.637  0.00  0.00    -0.165 F 
ENDBRANCH  20  23
ENDBRANCH  17  20
ENDBRANCH   3  17
TORSDOF 8
ENDMDL
MODEL 20
REMARK VINA RESULT:      -5.7      6.561      8.180
REMARK  8 active torsions:
REMARK  status: ('A' for Active; 'I' for Inactive)
REMARK    1  A    between atoms: O_16  and  C_25 
REMARK    2  A    between atoms: C_18  and  C_19 
REMARK    3  A    between atoms: C_18  and  C_20 
REMARK    4  A    between atoms: C_19  and  C_21 
REMARK    5  A    between atoms: C_20  and  C_22 
REMARK    6  A    between atoms: C_21  and  C_23 
REMARK    7  A    between atoms: C_22  and  C_24 
REMARK    8  A    between atoms: C_23  and  C_25 
ROOT
ATOM      1  F   *** d   1       1.654   1.364  -9.372  0.00  0.00    -0.192 F 
ATOM      2  F   *** d   1       0.919   2.773  -8.009  0.00  0.00    -0.192 F 
ATOM      3  C   *** d   1       1.317   1.517  -8.104  0.00  0.00     0.384 C 
ENDROOT
BRANCH   3   4
ATOM      4  C   *** d   1       0.128   0.614  -7.817  0.00  0.00     0.385 C 
ATOM      5  F   *** d   1       0.183   0.229  -6.556  0.00  0.00    -0.192 F 
ATOM      6  F   *** d   1       0.267  -0.499  -8.515  0.00  0.00    -0.192 F 
BRANCH   4   7
ATOM      7  C   *** d   1      -1.259   1.166  -8.088  0.00  0.00     0.388 C 
ATOM      8  F   *** d   1      -2.096   0.165  -8.301  0.00  0.00    -0.192 F 
ATOM      9  F   *** d   1      -1.249   1.837  -9.226  0.00  0.00    -0.192 F 
BRANCH   7  10
ATOM     10  C   *** d   1      -1.901   2.034  -7.027  0.00  0.00     0.396 C 
ATOM     11  F   *** d   1      -1.012   2.292  -6.056  0.00  0.00    -0.187 F 
ATOM     12  F   *** d   1      -2.913   1.366  -6.457  0.00  0.00    -0.187 F 
BRANCH  10  13
ATOM     13  C   *** d   1      -2.452   3.362  -7.614  0.00  0.00     0.222 C 
ATOM     14  O   *** d   1      -1.821   4.398  -7.687  0.00  0.00    -0.645 OA
BRANCH  13  15
ATOM     15  O   *** d   1      -3.727   3.216  -8.040  0.00  0.00    -0.772 OA
ATOM     16  H   *** d   1      -4.041   3.972  -8.562  0.00  0.00     0.167 HD
ENDBRANCH  13  15
ENDBRANCH  10  13
ENDBRANCH   7  10
ENDBRANCH   4   7
ENDBRANCH   3   4
BRANCH   3  17
ATOM     17  C   *** d   1       2.561   1.339  -7.250  0.00  0.00     0.387 C 
ATOM     18  F   *** d   1       2.808   0.048  -7.128  0.00  0.00    -0.192 F 
ATOM     19  F   *** d   1       2.295   1.747  -6.023  0.00  0.00    -0.192 F 
BRANCH  17  20
ATOM     20  C   *** d   1       3.842   2.022  -7.705  0.00  0.00     0.409 C 
ATOM     21  F   *** d   1       3.535   3.218  -8.179  0.00  0.00    -0.189 F 
ATOM     22  F   *** d   1       4.329   1.351  -8.737  0.00  0.00    -0.189 F 
BRANCH  20  23
ATOM     23  C   *** d   1       4.937   2.182  -6.680  0.00  0.00     0.461 C 
ATOM     24  F   *** d   1       4.692   3.182  -5.880  0.00  0.00    -0.165 F 
ATOM     25  F   *** d   1       6.104   2.393  -7.229  0.00  0.00    -0.165 F 
ATOM     26  F   *** d   1       5.042   1.117  -5.933  0.00  0.00    -0.165 F 
ENDBRANCH  20  23
ENDBRANCH  17  20
ENDBRANCH   3  17
TORSDOF 8
ENDMDL
