MODEL 1
REMARK VINA RESULT:      -6.2      0.000      0.000
REMARK  8 active torsions:
REMARK  status: ('A' for Active; 'I' for Inactive)
REMARK    1  A    between atoms: O_16  and  C_25 
REMARK    2  A    between atoms: C_18  and  C_19 
REMARK    3  A    between atoms: C_18  and  C_20 
REMARK    4  A    between atoms: C_19  and  C_21 
REMARK    5  A    between atoms: C_20  and  C_22 
REMARK    6  A    between atoms: C_21  and  C_23 
REMARK    7  A    between atoms: C_22  and  C_24 
REMARK    8  A    between atoms: C_23  and  C_25 
ROOT
ATOM      1  F   *** d   1      -0.115  -0.036  16.805  0.00  0.00    -0.192 F 
ATOM      2  F   *** d   1      -1.429   0.581  15.297  0.00  0.00    -0.192 F 
ATOM      3  C   *** d   1      -0.200   0.143  15.499  0.00  0.00     0.384 C 
ENDROOT
BRANCH   3   4
ATOM      4  C   *** d   1       0.773   1.244  15.108  0.00  0.00     0.385 C 
ATOM      5  F   *** d   1       1.354   0.911  13.970  0.00  0.00    -0.192 F 
ATOM      6  F   *** d   1       1.754   1.272  15.992  0.00  0.00    -0.192 F 
BRANCH   4   7
ATOM      7  C   *** d   1       0.226   2.653  14.971  0.00  0.00     0.388 C 
ATOM      8  F   *** d   1       1.155   3.521  15.332  0.00  0.00    -0.192 F 
ATOM      9  F   *** d   1      -0.750   2.830  15.842  0.00  0.00    -0.192 F 
BRANCH   7  10
ATOM     10  C   *** d   1      -0.263   3.098  13.609  0.00  0.00     0.396 C 
ATOM     11  F   *** d   1      -0.820   2.061  12.966  0.00  0.00    -0.187 F 
ATOM     12  F   *** d   1       0.782   3.494  12.869  0.00  0.00    -0.187 F 
BRANCH  10  13
ATOM     13  C   *** d   1      -1.275   4.272  13.706  0.00  0.00     0.222 C 
ATOM     14  O   *** d   1      -0.973   5.425  13.941  0.00  0.00    -0.645 OA
BRANCH  13  15
ATOM     15  O   *** d   1      -2.540   3.845  13.489  0.00  0.00    -0.772 OA
ATOM     16  H   *** d   1      -2.674   3.500  12.592  0.00  0.00     0.167 HD
ENDBRANCH  13  15
ENDBRANCH  10  13
ENDBRANCH   7  10
ENDBRANCH   4   7
ENDBRANCH   3   4
BRANCH   3  17
ATOM     17  C   *** d   1      -0.050  -1.207  14.817  0.00  0.00     0.387 C 
ATOM     18  F   *** d   1       1.172  -1.655  15.032  0.00  0.00    -0.192 F 
ATOM     19  F   *** d   1      -0.117  -1.031  13.510  0.00  0.00    -0.192 F 
BRANCH  17  20
ATOM     20  C   *** d   1      -1.029  -2.309  15.194  0.00  0.00     0.409 C 
ATOM     21  F   *** d   1      -2.233  -1.775  15.323  0.00  0.00    -0.189 F 
ATOM     22  F   *** d   1      -0.712  -2.753  16.400  0.00  0.00    -0.189 F 
BRANCH  20  23
ATOM     23  C   *** d   1      -1.127  -3.490  14.261  0.00  0.00     0.461 C 
ATOM     24  F   *** d   1      -2.360  -3.696  13.890  0.00  0.00    -0.165 F 
ATOM     25  F   *** d   1      -0.691  -4.594  14.809  0.00  0.00    -0.165 F 
ATOM     26  F   *** d   1      -0.433  -3.290  13.174  0.00  0.00    -0.165 F 
ENDBRANCH  20  23
ENDBRANCH  17  20
ENDBRANCH   3  17
TORSDOF 8
ENDMDL
MODEL 2
REMARK VINA RESULT:      -6.1     11.255     13.552
REMARK  8 active torsions:
REMARK  status: ('A' for Active; 'I' for Inactive)
REMARK    1  A    between atoms: O_16  and  C_25 
REMARK    2  A    between atoms: C_18  and  C_19 
REMARK    3  A    between atoms: C_18  and  C_20 
REMARK    4  A    between atoms: C_19  and  C_21 
REMARK    5  A    between atoms: C_20  and  C_22 
REMARK    6  A    between atoms: C_21  and  C_23 
REMARK    7  A    between atoms: C_22  and  C_24 
REMARK    8  A    between atoms: C_23  and  C_25 
ROOT
ATOM      1  F   *** d   1       9.767   7.001   8.664  0.00  0.00    -0.192 F 
ATOM      2  F   *** d   1       7.752   7.003   8.095  0.00  0.00    -0.192 F 
ATOM      3  C   *** d   1       8.908   6.412   7.852  0.00  0.00     0.384 C 
ENDROOT
BRANCH   3   4
ATOM      4  C   *** d   1       9.315   6.727   6.421  0.00  0.00     0.385 C 
ATOM      5  F   *** d   1       8.644   5.935   5.605  0.00  0.00    -0.192 F 
ATOM      6  F   *** d   1      10.580   6.382   6.259  0.00  0.00    -0.192 F 
BRANCH   4   7
ATOM      7  C   *** d   1       9.155   8.157   5.940  0.00  0.00     0.388 C 
ATOM      8  F   *** d   1       7.933   8.579   6.218  0.00  0.00    -0.192 F 
ATOM      9  F   *** d   1       9.224   8.185   4.621  0.00  0.00    -0.192 F 
BRANCH   7  10
ATOM     10  C   *** d   1      10.099   9.204   6.490  0.00  0.00     0.396 C 
ATOM     11  F   *** d   1      11.266   8.631   6.824  0.00  0.00    -0.187 F 
ATOM     12  F   *** d   1       9.586   9.719   7.616  0.00  0.00    -0.187 F 
BRANCH  10  13
ATOM     13  C   *** d   1      10.341  10.360   5.482  0.00  0.00     0.222 C 
ATOM     14  O   *** d   1       9.547  11.249   5.249  0.00  0.00    -0.645 OA
BRANCH  13  15
ATOM     15  O   *** d   1      11.557  10.253   4.898  0.00  0.00    -0.772 OA
ATOM     16  H   *** d   1      11.532   9.768   4.058  0.00  0.00     0.167 HD
ENDBRANCH  13  15
ENDBRANCH  10  13
ENDBRANCH   7  10
ENDBRANCH   4   7
ENDBRANCH   3   4
BRANCH   3  17
ATOM     17  C   *** d   1       8.795   4.949   8.249  0.00  0.00     0.387 C 
ATOM     18  F   *** d   1       9.967   4.371   8.067  0.00  0.00    -0.192 F 
ATOM     19  F   *** d   1       7.987   4.341   7.399  0.00  0.00    -0.192 F 
BRANCH  17  20
ATOM     20  C   *** d   1       8.325   4.627   9.659  0.00  0.00     0.409 C 
ATOM     21  F   *** d   1       8.567   5.674  10.431  0.00  0.00    -0.189 F 
ATOM     22  F   *** d   1       9.083   3.655  10.140  0.00  0.00    -0.189 F 
BRANCH  20  23
ATOM     23  C   *** d   1       6.878   4.234   9.828  0.00  0.00     0.461 C 
ATOM     24  F   *** d   1       6.536   4.226  11.086  0.00  0.00    -0.165 F 
ATOM     25  F   *** d   1       6.627   3.046   9.344  0.00  0.00    -0.165 F 
ATOM     26  F   *** d   1       6.087   5.078   9.226  0.00  0.00    -0.165 F 
ENDBRANCH  20  23
ENDBRANCH  17  20
ENDBRANCH   3  17
TORSDOF 8
ENDMDL
MODEL 3
REMARK VINA RESULT:      -6.0      1.250      2.732
REMARK  8 active torsions:
REMARK  status: ('A' for Active; 'I' for Inactive)
REMARK    1  A    between atoms: O_16  and  C_25 
REMARK    2  A    between atoms: C_18  and  C_19 
REMARK    3  A    between atoms: C_18  and  C_20 
REMARK    4  A    between atoms: C_19  and  C_21 
REMARK    5  A    between atoms: C_20  and  C_22 
REMARK    6  A    between atoms: C_21  and  C_23 
REMARK    7  A    between atoms: C_22  and  C_24 
REMARK    8  A    between atoms: C_23  and  C_25 
ROOT
ATOM      1  F   *** d   1       0.299  -0.912  13.447  0.00  0.00    -0.192 F 
ATOM      2  F   *** d   1       1.469  -0.996  15.180  0.00  0.00    -0.192 F 
ATOM      3  C   *** d   1       0.217  -1.019  14.760  0.00  0.00     0.384 C 
ENDROOT
BRANCH   3   4
ATOM      4  C   *** d   1      -0.491   0.215  15.295  0.00  0.00     0.385 C 
ATOM      5  F   *** d   1      -0.180   0.365  16.569  0.00  0.00    -0.192 F 
ATOM      6  F   *** d   1      -1.793  -0.013  15.290  0.00  0.00    -0.192 F 
BRANCH   4   7
ATOM      7  C   *** d   1      -0.245   1.533  14.585  0.00  0.00     0.388 C 
ATOM      8  F   *** d   1      -0.609   1.425  13.318  0.00  0.00    -0.192 F 
ATOM      9  F   *** d   1       1.054   1.769  14.537  0.00  0.00    -0.192 F 
BRANCH   7  10
ATOM     10  C   *** d   1      -0.935   2.770  15.118  0.00  0.00     0.396 C 
ATOM     11  F   *** d   1      -0.276   3.228  16.194  0.00  0.00    -0.187 F 
ATOM     12  F   *** d   1      -2.170   2.449  15.529  0.00  0.00    -0.187 F 
BRANCH  10  13
ATOM     13  C   *** d   1      -1.045   3.887  14.044  0.00  0.00     0.222 C 
ATOM     14  O   *** d   1      -0.111   4.553  13.645  0.00  0.00    -0.645 OA
BRANCH  13  15
ATOM     15  O   *** d   1      -2.318   4.019  13.605  0.00  0.00    -0.772 OA
ATOM     16  H   *** d   1      -2.957   4.131  14.326  0.00  0.00     0.167 HD
ENDBRANCH  13  15
ENDBRANCH  10  13
ENDBRANCH   7  10
ENDBRANCH   4   7
ENDBRANCH   3   4
BRANCH   3  17
ATOM     17  C   *** d   1      -0.379  -2.377  15.096  0.00  0.00     0.387 C 
ATOM     18  F   *** d   1      -1.694  -2.269  15.104  0.00  0.00    -0.192 F 
ATOM     19  F   *** d   1      -0.061  -2.683  16.341  0.00  0.00    -0.192 F 
BRANCH  17  20
ATOM     20  C   *** d   1      -0.009  -3.557  14.211  0.00  0.00     0.409 C 
ATOM     21  F   *** d   1      -0.444  -3.315  12.985  0.00  0.00    -0.189 F 
ATOM     22  F   *** d   1      -0.688  -4.616  14.622  0.00  0.00    -0.189 F 
BRANCH  20  23
ATOM     23  C   *** d   1       1.452  -3.926  14.134  0.00  0.00     0.461 C 
ATOM     24  F   *** d   1       1.607  -5.145  13.697  0.00  0.00    -0.165 F 
ATOM     25  F   *** d   1       2.046  -3.846  15.296  0.00  0.00    -0.165 F 
ATOM     26  F   *** d   1       2.093  -3.144  13.311  0.00  0.00    -0.165 F 
ENDBRANCH  20  23
ENDBRANCH  17  20
ENDBRANCH   3  17
TORSDOF 8
ENDMDL
MODEL 4
REMARK VINA RESULT:      -6.0     12.291     14.988
REMARK  8 active torsions:
REMARK  status: ('A' for Active; 'I' for Inactive)
REMARK    1  A    between atoms: O_16  and  C_25 
REMARK    2  A    between atoms: C_18  and  C_19 
REMARK    3  A    between atoms: C_18  and  C_20 
REMARK    4  A    between atoms: C_19  and  C_21 
REMARK    5  A    between atoms: C_20  and  C_22 
REMARK    6  A    between atoms: C_21  and  C_23 
REMARK    7  A    between atoms: C_22  and  C_24 
REMARK    8  A    between atoms: C_23  and  C_25 
ROOT
ATOM      1  F   *** d   1      -5.412 -13.078  11.392  0.00  0.00    -0.192 F 
ATOM      2  F   *** d   1      -6.054 -12.426   9.509  0.00  0.00    -0.192 F 
ATOM      3  C   *** d   1      -6.051 -12.093  10.787  0.00  0.00     0.384 C 
ENDROOT
BRANCH   3   4
ATOM      4  C   *** d   1      -7.488 -12.084  11.283  0.00  0.00     0.385 C 
ATOM      5  F   *** d   1      -8.297 -12.056  10.240  0.00  0.00    -0.192 F 
ATOM      6  F   *** d   1      -7.708 -10.942  11.910  0.00  0.00    -0.192 F 
BRANCH   4   7
ATOM      7  C   *** d   1      -7.926 -13.212  12.198  0.00  0.00     0.388 C 
ATOM      8  F   *** d   1      -7.371 -14.343  11.796  0.00  0.00    -0.192 F 
ATOM      9  F   *** d   1      -9.224 -13.411  12.058  0.00  0.00    -0.192 F 
BRANCH   7  10
ATOM     10  C   *** d   1      -7.618 -13.092  13.675  0.00  0.00     0.396 C 
ATOM     11  F   *** d   1      -8.531 -12.306  14.266  0.00  0.00    -0.187 F 
ATOM     12  F   *** d   1      -6.430 -12.491  13.835  0.00  0.00    -0.187 F 
BRANCH  10  13
ATOM     13  C   *** d   1      -7.571 -14.477  14.377  0.00  0.00     0.222 C 
ATOM     14  O   *** d   1      -6.552 -15.080  14.644  0.00  0.00    -0.645 OA
BRANCH  13  15
ATOM     15  O   *** d   1      -8.816 -14.923  14.660  0.00  0.00    -0.772 OA
ATOM     16  H   *** d   1      -9.460 -14.205  14.769  0.00  0.00     0.167 HD
ENDBRANCH  13  15
ENDBRANCH  10  13
ENDBRANCH   7  10
ENDBRANCH   4   7
ENDBRANCH   3   4
BRANCH   3  17
ATOM     17  C   *** d   1      -5.239 -10.819  10.951  0.00  0.00     0.387 C 
ATOM     18  F   *** d   1      -5.444 -10.342  12.164  0.00  0.00    -0.192 F 
ATOM     19  F   *** d   1      -5.728  -9.897  10.141  0.00  0.00    -0.192 F 
BRANCH  17  20
ATOM     20  C   *** d   1      -3.737 -10.896  10.723  0.00  0.00     0.409 C 
ATOM     21  F   *** d   1      -3.351  -9.800  10.092  0.00  0.00    -0.189 F 
ATOM     22  F   *** d   1      -3.493 -11.888   9.882  0.00  0.00    -0.189 F 
BRANCH  20  23
ATOM     23  C   *** d   1      -2.866 -11.078  11.941  0.00  0.00     0.461 C 
ATOM     24  F   *** d   1      -1.755 -11.691  11.640  0.00  0.00    -0.165 F 
ATOM     25  F   *** d   1      -3.458 -11.773  12.876  0.00  0.00    -0.165 F 
ATOM     26  F   *** d   1      -2.534  -9.927  12.459  0.00  0.00    -0.165 F 
ENDBRANCH  20  23
ENDBRANCH  17  20
ENDBRANCH   3  17
TORSDOF 8
ENDMDL
MODEL 5
REMARK VINA RESULT:      -6.0     10.894     14.169
REMARK  8 active torsions:
REMARK  status: ('A' for Active; 'I' for Inactive)
REMARK    1  A    between atoms: O_16  and  C_25 
REMARK    2  A    between atoms: C_18  and  C_19 
REMARK    3  A    between atoms: C_18  and  C_20 
REMARK    4  A    between atoms: C_19  and  C_21 
REMARK    5  A    between atoms: C_20  and  C_22 
REMARK    6  A    between atoms: C_21  and  C_23 
REMARK    7  A    between atoms: C_22  and  C_24 
REMARK    8  A    between atoms: C_23  and  C_25 
ROOT
ATOM      1  F   *** d   1       8.130   7.501   8.277  0.00  0.00    -0.192 F 
ATOM      2  F   *** d   1      10.220   7.409   8.203  0.00  0.00    -0.192 F 
ATOM      3  C   *** d   1       9.131   6.990   7.584  0.00  0.00     0.384 C 
ENDROOT
BRANCH   3   4
ATOM      4  C   *** d   1       9.065   5.476   7.702  0.00  0.00     0.385 C 
ATOM      5  F   *** d   1      10.220   4.970   7.313  0.00  0.00    -0.192 F 
ATOM      6  F   *** d   1       8.187   5.024   6.824  0.00  0.00    -0.192 F 
BRANCH   4   7
ATOM      7  C   *** d   1       8.717   4.887   9.056  0.00  0.00     0.388 C 
ATOM      8  F   *** d   1       8.973   5.778  10.000  0.00  0.00    -0.192 F 
ATOM      9  F   *** d   1       9.532   3.882   9.319  0.00  0.00    -0.192 F 
BRANCH   7  10
ATOM     10  C   *** d   1       7.295   4.423   9.288  0.00  0.00     0.396 C 
ATOM     11  F   *** d   1       7.061   3.310   8.577  0.00  0.00    -0.187 F 
ATOM     12  F   *** d   1       6.443   5.355   8.837  0.00  0.00    -0.187 F 
BRANCH  10  13
ATOM     13  C   *** d   1       7.001   4.168  10.791  0.00  0.00     0.222 C 
ATOM     14  O   *** d   1       6.387   4.929  11.512  0.00  0.00    -0.645 OA
BRANCH  13  15
ATOM     15  O   *** d   1       7.513   2.983  11.195  0.00  0.00    -0.772 OA
ATOM     16  H   *** d   1       6.833   2.356  11.487  0.00  0.00     0.167 HD
ENDBRANCH  13  15
ENDBRANCH  10  13
ENDBRANCH   7  10
ENDBRANCH   4   7
ENDBRANCH   3   4
BRANCH   3  17
ATOM     17  C   *** d   1       9.107   7.592   6.189  0.00  0.00     0.387 C 
ATOM     18  F   *** d   1       7.865   7.572   5.742  0.00  0.00    -0.192 F 
ATOM     19  F   *** d   1       9.770   6.794   5.372  0.00  0.00    -0.192 F 
BRANCH  17  20
ATOM     20  C   *** d   1       9.648   9.002   6.011  0.00  0.00     0.409 C 
ATOM     21  F   *** d   1       9.655   9.290   4.720  0.00  0.00    -0.189 F 
ATOM     22  F   *** d   1      10.919   9.012   6.379  0.00  0.00    -0.189 F 
BRANCH  20  23
ATOM     23  C   *** d   1       8.931  10.110   6.742  0.00  0.00     0.461 C 
ATOM     24  F   *** d   1       9.425  10.284   7.937  0.00  0.00    -0.165 F 
ATOM     25  F   *** d   1       7.653   9.872   6.876  0.00  0.00    -0.165 F 
ATOM     26  F   *** d   1       9.054  11.246   6.113  0.00  0.00    -0.165 F 
ENDBRANCH  20  23
ENDBRANCH  17  20
ENDBRANCH   3  17
TORSDOF 8
ENDMDL
MODEL 6
REMARK VINA RESULT:      -6.0      3.210      6.113
REMARK  8 active torsions:
REMARK  status: ('A' for Active; 'I' for Inactive)
REMARK    1  A    between atoms: O_16  and  C_25 
REMARK    2  A    between atoms: C_18  and  C_19 
REMARK    3  A    between atoms: C_18  and  C_20 
REMARK    4  A    between atoms: C_19  and  C_21 
REMARK    5  A    between atoms: C_20  and  C_22 
REMARK    6  A    between atoms: C_21  and  C_23 
REMARK    7  A    between atoms: C_22  and  C_24 
REMARK    8  A    between atoms: C_23  and  C_25 
ROOT
ATOM      1  F   *** d   1      -0.124  -1.192  17.242  0.00  0.00    -0.192 F 
ATOM      2  F   *** d   1       1.458  -1.147  15.872  0.00  0.00    -0.192 F 
ATOM      3  C   *** d   1       0.152  -0.975  15.969  0.00  0.00     0.384 C 
ENDROOT
BRANCH   3   4
ATOM      4  C   *** d   1      -0.536  -2.051  15.144  0.00  0.00     0.385 C 
ATOM      5  F   *** d   1      -0.746  -1.583  13.928  0.00  0.00    -0.192 F 
ATOM      6  F   *** d   1      -1.744  -2.252  15.640  0.00  0.00    -0.192 F 
BRANCH   4   7
ATOM      7  C   *** d   1       0.152  -3.398  15.025  0.00  0.00     0.388 C 
ATOM      8  F   *** d   1      -0.759  -4.356  15.001  0.00  0.00    -0.192 F 
ATOM      9  F   *** d   1       0.849  -3.631  16.123  0.00  0.00    -0.192 F 
BRANCH   7  10
ATOM     10  C   *** d   1       1.049  -3.638  13.830  0.00  0.00     0.396 C 
ATOM     11  F   *** d   1       1.862  -2.585  13.656  0.00  0.00    -0.187 F 
ATOM     12  F   *** d   1       0.299  -3.732  12.723  0.00  0.00    -0.187 F 
BRANCH  10  13
ATOM     13  C   *** d   1       1.883  -4.939  13.976  0.00  0.00     0.222 C 
ATOM     14  O   *** d   1       1.441  -6.061  13.832  0.00  0.00    -0.645 OA
BRANCH  13  15
ATOM     15  O   *** d   1       3.172  -4.661  14.280  0.00  0.00    -0.772 OA
ATOM     16  H   *** d   1       3.387  -3.719  14.192  0.00  0.00     0.167 HD
ENDBRANCH  13  15
ENDBRANCH  10  13
ENDBRANCH   7  10
ENDBRANCH   4   7
ENDBRANCH   3   4
BRANCH   3  17
ATOM     17  C   *** d   1      -0.168   0.475  15.647  0.00  0.00     0.387 C 
ATOM     18  F   *** d   1      -0.045   1.189  16.750  0.00  0.00    -0.192 F 
ATOM     19  F   *** d   1      -1.447   0.567  15.330  0.00  0.00    -0.192 F 
BRANCH  17  20
ATOM     20  C   *** d   1       0.638   1.158  14.553  0.00  0.00     0.409 C 
ATOM     21  F   *** d   1       1.011   0.242  13.673  0.00  0.00    -0.189 F 
ATOM     22  F   *** d   1       1.763   1.610  15.084  0.00  0.00    -0.189 F 
BRANCH  20  23
ATOM     23  C   *** d   1      -0.029   2.289  13.812  0.00  0.00     0.461 C 
ATOM     24  F   *** d   1      -0.811   1.839  12.870  0.00  0.00    -0.165 F 
ATOM     25  F   *** d   1       0.835   3.095  13.254  0.00  0.00    -0.165 F 
ATOM     26  F   *** d   1      -0.772   3.003  14.612  0.00  0.00    -0.165 F 
ENDBRANCH  20  23
ENDBRANCH  17  20
ENDBRANCH   3  17
TORSDOF 8
ENDMDL
MODEL 7
REMARK VINA RESULT:      -5.9     20.466     22.886
REMARK  8 active torsions:
REMARK  status: ('A' for Active; 'I' for Inactive)
REMARK    1  A    between atoms: O_16  and  C_25 
REMARK    2  A    between atoms: C_18  and  C_19 
REMARK    3  A    between atoms: C_18  and  C_20 
REMARK    4  A    between atoms: C_19  and  C_21 
REMARK    5  A    between atoms: C_20  and  C_22 
REMARK    6  A    between atoms: C_21  and  C_23 
REMARK    7  A    between atoms: C_22  and  C_24 
REMARK    8  A    between atoms: C_23  and  C_25 
ROOT
ATOM      1  F   *** d   1       5.242 -13.501  -1.835  0.00  0.00    -0.192 F 
ATOM      2  F   *** d   1       7.308 -13.807  -1.704  0.00  0.00    -0.192 F 
ATOM      3  C   *** d   1       6.402 -12.977  -2.186  0.00  0.00     0.384 C 
ENDROOT
BRANCH   3   4
ATOM      4  C   *** d   1       6.492 -12.996  -3.704  0.00  0.00     0.385 C 
ATOM      5  F   *** d   1       5.738 -12.025  -4.185  0.00  0.00    -0.192 F 
ATOM      6  F   *** d   1       5.930 -14.108  -4.144  0.00  0.00    -0.192 F 
BRANCH   4   7
ATOM      7  C   *** d   1       7.869 -12.887  -4.330  0.00  0.00     0.388 C 
ATOM      8  F   *** d   1       8.013 -13.835  -5.241  0.00  0.00    -0.192 F 
ATOM      9  F   *** d   1       8.787 -13.159  -3.420  0.00  0.00    -0.192 F 
BRANCH   7  10
ATOM     10  C   *** d   1       8.242 -11.587  -5.011  0.00  0.00     0.396 C 
ATOM     11  F   *** d   1       7.703 -10.556  -4.343  0.00  0.00    -0.187 F 
ATOM     12  F   *** d   1       7.717 -11.564  -6.245  0.00  0.00    -0.187 F 
BRANCH  10  13
ATOM     13  C   *** d   1       9.780 -11.406  -5.123  0.00  0.00     0.222 C 
ATOM     14  O   *** d   1      10.486 -11.987  -5.922  0.00  0.00    -0.645 OA
BRANCH  13  15
ATOM     15  O   *** d   1      10.233 -10.509  -4.217  0.00  0.00    -0.772 OA
ATOM     16  H   *** d   1      10.076  -9.589  -4.484  0.00  0.00     0.167 HD
ENDBRANCH  13  15
ENDBRANCH  10  13
ENDBRANCH   7  10
ENDBRANCH   4   7
ENDBRANCH   3   4
BRANCH   3  17
ATOM     17  C   *** d   1       6.556 -11.636  -1.486  0.00  0.00     0.387 C 
ATOM     18  F   *** d   1       5.858 -10.733  -2.148  0.00  0.00    -0.192 F 
ATOM     19  F   *** d   1       7.810 -11.240  -1.600  0.00  0.00    -0.192 F 
BRANCH  17  20
ATOM     20  C   *** d   1       6.166 -11.549  -0.019  0.00  0.00     0.409 C 
ATOM     21  F   *** d   1       6.700 -12.578   0.619  0.00  0.00    -0.189 F 
ATOM     22  F   *** d   1       4.857 -11.720   0.076  0.00  0.00    -0.189 F 
BRANCH  20  23
ATOM     23  C   *** d   1       6.537 -10.286   0.717  0.00  0.00     0.461 C 
ATOM     24  F   *** d   1       5.753 -10.088   1.740  0.00  0.00    -0.165 F 
ATOM     25  F   *** d   1       6.463  -9.227  -0.046  0.00  0.00    -0.165 F 
ATOM     26  F   *** d   1       7.755 -10.351   1.180  0.00  0.00    -0.165 F 
ENDBRANCH  20  23
ENDBRANCH  17  20
ENDBRANCH   3  17
TORSDOF 8
ENDMDL
MODEL 8
REMARK VINA RESULT:      -5.9      1.119      2.035
REMARK  8 active torsions:
REMARK  status: ('A' for Active; 'I' for Inactive)
REMARK    1  A    between atoms: O_16  and  C_25 
REMARK    2  A    between atoms: C_18  and  C_19 
REMARK    3  A    between atoms: C_18  and  C_20 
REMARK    4  A    between atoms: C_19  and  C_21 
REMARK    5  A    between atoms: C_20  and  C_22 
REMARK    6  A    between atoms: C_21  and  C_23 
REMARK    7  A    between atoms: C_22  and  C_24 
REMARK    8  A    between atoms: C_23  and  C_25 
ROOT
ATOM      1  F   *** d   1       1.434  -1.326  15.683  0.00  0.00    -0.192 F 
ATOM      2  F   *** d   1      -0.014  -0.415  16.888  0.00  0.00    -0.192 F 
ATOM      3  C   *** d   1       0.199  -0.860  15.664  0.00  0.00     0.384 C 
ENDROOT
BRANCH   3   4
ATOM      4  C   *** d   1       0.154   0.323  14.709  0.00  0.00     0.385 C 
ATOM      5  F   *** d   1      -0.418  -0.062  13.584  0.00  0.00    -0.192 F 
ATOM      6  F   *** d   1       1.392   0.635  14.368  0.00  0.00    -0.192 F 
BRANCH   4   7
ATOM      7  C   *** d   1      -0.533   1.589  15.186  0.00  0.00     0.388 C 
ATOM      8  F   *** d   1       0.033   1.999  16.308  0.00  0.00    -0.192 F 
ATOM      9  F   *** d   1      -1.778   1.310  15.525  0.00  0.00    -0.192 F 
BRANCH   7  10
ATOM     10  C   *** d   1      -0.547   2.785  14.259  0.00  0.00     0.396 C 
ATOM     11  F   *** d   1      -0.663   2.370  12.987  0.00  0.00    -0.187 F 
ATOM     12  F   *** d   1       0.623   3.432  14.348  0.00  0.00    -0.187 F 
BRANCH  10  13
ATOM     13  C   *** d   1      -1.690   3.778  14.603  0.00  0.00     0.222 C 
ATOM     14  O   *** d   1      -1.740   4.447  15.615  0.00  0.00    -0.645 OA
BRANCH  13  15
ATOM     15  O   *** d   1      -2.623   3.807  13.624  0.00  0.00    -0.772 OA
ATOM     16  H   *** d   1      -2.527   4.570  13.032  0.00  0.00     0.167 HD
ENDBRANCH  13  15
ENDBRANCH  10  13
ENDBRANCH   7  10
ENDBRANCH   4   7
ENDBRANCH   3   4
BRANCH   3  17
ATOM     17  C   *** d   1      -0.749  -2.018  15.399  0.00  0.00     0.387 C 
ATOM     18  F   *** d   1      -1.942  -1.530  15.118  0.00  0.00    -0.192 F 
ATOM     19  F   *** d   1      -0.919  -2.691  16.522  0.00  0.00    -0.192 F 
BRANCH  17  20
ATOM     20  C   *** d   1      -0.377  -3.009  14.307  0.00  0.00     0.409 C 
ATOM     21  F   *** d   1       0.354  -2.380  13.401  0.00  0.00    -0.189 F 
ATOM     22  F   *** d   1      -1.483  -3.369  13.676  0.00  0.00    -0.189 F 
BRANCH  20  23
ATOM     23  C   *** d   1       0.358  -4.255  14.732  0.00  0.00     0.461 C 
ATOM     24  F   *** d   1      -0.464  -5.151  15.202  0.00  0.00    -0.165 F 
ATOM     25  F   *** d   1       1.250  -4.015  15.657  0.00  0.00    -0.165 F 
ATOM     26  F   *** d   1       0.978  -4.804  13.723  0.00  0.00    -0.165 F 
ENDBRANCH  20  23
ENDBRANCH  17  20
ENDBRANCH   3  17
TORSDOF 8
ENDMDL
MODEL 9
REMARK VINA RESULT:      -5.9      0.991      2.308
REMARK  8 active torsions:
REMARK  status: ('A' for Active; 'I' for Inactive)
REMARK    1  A    between atoms: O_16  and  C_25 
REMARK    2  A    between atoms: C_18  and  C_19 
REMARK    3  A    between atoms: C_18  and  C_20 
REMARK    4  A    between atoms: C_19  and  C_21 
REMARK    5  A    between atoms: C_20  and  C_22 
REMARK    6  A    between atoms: C_21  and  C_23 
REMARK    7  A    between atoms: C_22  and  C_24 
REMARK    8  A    between atoms: C_23  and  C_25 
ROOT
ATOM      1  F   *** d   1      -0.401   0.514  13.564  0.00  0.00    -0.192 F 
ATOM      2  F   *** d   1       1.501  -0.302  13.877  0.00  0.00    -0.192 F 
ATOM      3  C   *** d   1       0.409   0.082  14.513  0.00  0.00     0.384 C 
ENDROOT
BRANCH   3   4
ATOM      4  C   *** d   1       0.764   1.259  15.408  0.00  0.00     0.385 C 
ATOM      5  F   *** d   1       2.030   1.153  15.765  0.00  0.00    -0.192 F 
ATOM      6  F   *** d   1       0.085   1.149  16.535  0.00  0.00    -0.192 F 
BRANCH   4   7
ATOM      7  C   *** d   1       0.537   2.655  14.859  0.00  0.00     0.388 C 
ATOM      8  F   *** d   1       0.631   2.629  13.540  0.00  0.00    -0.192 F 
ATOM      9  F   *** d   1       1.524   3.443  15.246  0.00  0.00    -0.192 F 
BRANCH   7  10
ATOM     10  C   *** d   1      -0.774   3.341  15.176  0.00  0.00     0.396 C 
ATOM     11  F   *** d   1      -0.712   3.896  16.396  0.00  0.00    -0.187 F 
ATOM     12  F   *** d   1      -1.756   2.429  15.218  0.00  0.00    -0.187 F 
BRANCH  10  13
ATOM     13  C   *** d   1      -1.142   4.417  14.118  0.00  0.00     0.222 C 
ATOM     14  O   *** d   1      -0.532   5.454  13.949  0.00  0.00    -0.645 OA
BRANCH  13  15
ATOM     15  O   *** d   1      -2.228   4.047  13.402  0.00  0.00    -0.772 OA
ATOM     16  H   *** d   1      -3.052   4.440  13.733  0.00  0.00     0.167 HD
ENDBRANCH  13  15
ENDBRANCH  10  13
ENDBRANCH   7  10
ENDBRANCH   4   7
ENDBRANCH   3   4
BRANCH   3  17
ATOM     17  C   *** d   1      -0.222  -1.137  15.166  0.00  0.00     0.387 C 
ATOM     18  F   *** d   1      -1.509  -0.902  15.342  0.00  0.00    -0.192 F 
ATOM     19  F   *** d   1       0.265  -1.263  16.387  0.00  0.00    -0.192 F 
BRANCH  17  20
ATOM     20  C   *** d   1      -0.080  -2.477  14.462  0.00  0.00     0.409 C 
ATOM     21  F   *** d   1       1.148  -2.928  14.660  0.00  0.00    -0.189 F 
ATOM     22  F   *** d   1      -0.172  -2.275  13.157  0.00  0.00    -0.189 F 
BRANCH  20  23
ATOM     23  C   *** d   1      -1.055  -3.562  14.847  0.00  0.00     0.461 C 
ATOM     24  F   *** d   1      -0.568  -4.745  14.593  0.00  0.00    -0.165 F 
ATOM     25  F   *** d   1      -2.191  -3.459  14.209  0.00  0.00    -0.165 F 
ATOM     26  F   *** d   1      -1.317  -3.528  16.124  0.00  0.00    -0.165 F 
ENDBRANCH  20  23
ENDBRANCH  17  20
ENDBRANCH   3  17
TORSDOF 8
ENDMDL
MODEL 10
REMARK VINA RESULT:      -5.8      3.246      6.376
REMARK  8 active torsions:
REMARK  status: ('A' for Active; 'I' for Inactive)
REMARK    1  A    between atoms: O_16  and  C_25 
REMARK    2  A    between atoms: C_18  and  C_19 
REMARK    3  A    between atoms: C_18  and  C_20 
REMARK    4  A    between atoms: C_19  and  C_21 
REMARK    5  A    between atoms: C_20  and  C_22 
REMARK    6  A    between atoms: C_21  and  C_23 
REMARK    7  A    between atoms: C_22  and  C_24 
REMARK    8  A    between atoms: C_23  and  C_25 
ROOT
ATOM      1  F   *** d   1       1.345  -1.221  15.170  0.00  0.00    -0.192 F 
ATOM      2  F   *** d   1      -0.004  -0.837  13.616  0.00  0.00    -0.192 F 
ATOM      3  C   *** d   1       0.077  -0.939  14.930  0.00  0.00     0.384 C 
ENDROOT
BRANCH   3   4
ATOM      4  C   *** d   1      -0.765  -2.124  15.373  0.00  0.00     0.385 C 
ATOM      5  F   *** d   1      -2.038  -1.842  15.163  0.00  0.00    -0.192 F 
ATOM      6  F   *** d   1      -0.660  -2.248  16.684  0.00  0.00    -0.192 F 
BRANCH   4   7
ATOM      7  C   *** d   1      -0.466  -3.475  14.749  0.00  0.00     0.388 C 
ATOM      8  F   *** d   1       0.199  -3.299  13.620  0.00  0.00    -0.192 F 
ATOM      9  F   *** d   1      -1.598  -4.048  14.383  0.00  0.00    -0.192 F 
BRANCH   7  10
ATOM     10  C   *** d   1       0.334  -4.472  15.560  0.00  0.00     0.396 C 
ATOM     11  F   *** d   1      -0.363  -4.835  16.647  0.00  0.00    -0.187 F 
ATOM     12  F   *** d   1       1.458  -3.889  16.000  0.00  0.00    -0.187 F 
BRANCH  10  13
ATOM     13  C   *** d   1       0.719  -5.726  14.729  0.00  0.00     0.222 C 
ATOM     14  O   *** d   1       1.622  -5.765  13.918  0.00  0.00    -0.645 OA
BRANCH  13  15
ATOM     15  O   *** d   1      -0.080  -6.775  15.029  0.00  0.00    -0.772 OA
ATOM     16  H   *** d   1      -0.416  -6.747  15.939  0.00  0.00     0.167 HD
ENDBRANCH  13  15
ENDBRANCH  10  13
ENDBRANCH   7  10
ENDBRANCH   4   7
ENDBRANCH   3   4
BRANCH   3  17
ATOM     17  C   *** d   1      -0.237   0.418  15.538  0.00  0.00     0.387 C 
ATOM     18  F   *** d   1      -0.051   0.349  16.843  0.00  0.00    -0.192 F 
ATOM     19  F   *** d   1      -1.529   0.657  15.397  0.00  0.00    -0.192 F 
BRANCH  17  20
ATOM     20  C   *** d   1       0.524   1.627  15.018  0.00  0.00     0.409 C 
ATOM     21  F   *** d   1       1.711   1.225  14.594  0.00  0.00    -0.189 F 
ATOM     22  F   *** d   1       0.772   2.435  16.036  0.00  0.00    -0.189 F 
BRANCH  20  23
ATOM     23  C   *** d   1      -0.127   2.430  13.919  0.00  0.00     0.461 C 
ATOM     24  F   *** d   1      -1.050   3.218  14.396  0.00  0.00    -0.165 F 
ATOM     25  F   *** d   1      -0.687   1.671  13.014  0.00  0.00    -0.165 F 
ATOM     26  F   *** d   1       0.742   3.189  13.311  0.00  0.00    -0.165 F 
ENDBRANCH  20  23
ENDBRANCH  17  20
ENDBRANCH   3  17
TORSDOF 8
ENDMDL
MODEL 11
REMARK VINA RESULT:      -5.7     21.334     23.739
REMARK  8 active torsions:
REMARK  status: ('A' for Active; 'I' for Inactive)
REMARK    1  A    between atoms: O_16  and  C_25 
REMARK    2  A    between atoms: C_18  and  C_19 
REMARK    3  A    between atoms: C_18  and  C_20 
REMARK    4  A    between atoms: C_19  and  C_21 
REMARK    5  A    between atoms: C_20  and  C_22 
REMARK    6  A    between atoms: C_21  and  C_23 
REMARK    7  A    between atoms: C_22  and  C_24 
REMARK    8  A    between atoms: C_23  and  C_25 
ROOT
ATOM      1  F   *** d   1       8.599 -12.832  -3.113  0.00  0.00    -0.192 F 
ATOM      2  F   *** d   1       7.450 -14.191  -4.216  0.00  0.00    -0.192 F 
ATOM      3  C   *** d   1       7.624 -12.900  -4.001  0.00  0.00     0.384 C 
ENDROOT
BRANCH   3   4
ATOM      4  C   *** d   1       6.360 -12.346  -3.361  0.00  0.00     0.385 C 
ATOM      5  F   *** d   1       5.702 -13.339  -2.793  0.00  0.00    -0.192 F 
ATOM      6  F   *** d   1       5.558 -11.916  -4.319  0.00  0.00    -0.192 F 
BRANCH   4   7
ATOM      7  C   *** d   1       6.515 -11.230  -2.345  0.00  0.00     0.388 C 
ATOM      8  F   *** d   1       5.630 -10.280  -2.598  0.00  0.00    -0.192 F 
ATOM      9  F   *** d   1       7.687 -10.645  -2.511  0.00  0.00    -0.192 F 
BRANCH   7  10
ATOM     10  C   *** d   1       6.356 -11.575  -0.879  0.00  0.00     0.396 C 
ATOM     11  F   *** d   1       7.076 -12.671  -0.592  0.00  0.00    -0.187 F 
ATOM     12  F   *** d   1       5.075 -11.878  -0.628  0.00  0.00    -0.187 F 
BRANCH  10  13
ATOM     13  C   *** d   1       6.778 -10.401   0.046  0.00  0.00     0.222 C 
ATOM     14  O   *** d   1       6.092  -9.427   0.280  0.00  0.00    -0.645 OA
BRANCH  13  15
ATOM     15  O   *** d   1       8.011 -10.607   0.565  0.00  0.00    -0.772 OA
ATOM     16  H   *** d   1       8.714 -10.181   0.050  0.00  0.00     0.167 HD
ENDBRANCH  13  15
ENDBRANCH  10  13
ENDBRANCH   7  10
ENDBRANCH   4   7
ENDBRANCH   3   4
BRANCH   3  17
ATOM     17  C   *** d   1       8.102 -12.256  -5.292  0.00  0.00     0.387 C 
ATOM     18  F   *** d   1       7.797 -10.972  -5.261  0.00  0.00    -0.192 F 
ATOM     19  F   *** d   1       7.397 -12.744  -6.296  0.00  0.00    -0.192 F 
BRANCH  17  20
ATOM     20  C   *** d   1       9.576 -12.381  -5.648  0.00  0.00     0.409 C 
ATOM     21  F   *** d   1       9.679 -12.544  -6.957  0.00  0.00    -0.189 F 
ATOM     22  F   *** d   1      10.039 -13.502  -5.118  0.00  0.00    -0.189 F 
BRANCH  20  23
ATOM     23  C   *** d   1      10.481 -11.248  -5.234  0.00  0.00     0.461 C 
ATOM     24  F   *** d   1      11.736 -11.568  -5.385  0.00  0.00    -0.165 F 
ATOM     25  F   *** d   1      10.310 -10.906  -3.984  0.00  0.00    -0.165 F 
ATOM     26  F   *** d   1      10.270 -10.187  -5.963  0.00  0.00    -0.165 F 
ENDBRANCH  20  23
ENDBRANCH  17  20
ENDBRANCH   3  17
TORSDOF 8
ENDMDL
MODEL 12
REMARK VINA RESULT:      -5.7      2.916      5.887
REMARK  8 active torsions:
REMARK  status: ('A' for Active; 'I' for Inactive)
REMARK    1  A    between atoms: O_16  and  C_25 
REMARK    2  A    between atoms: C_18  and  C_19 
REMARK    3  A    between atoms: C_18  and  C_20 
REMARK    4  A    between atoms: C_19  and  C_21 
REMARK    5  A    between atoms: C_20  and  C_22 
REMARK    6  A    between atoms: C_21  and  C_23 
REMARK    7  A    between atoms: C_22  and  C_24 
REMARK    8  A    between atoms: C_23  and  C_25 
ROOT
ATOM      1  F   *** d   1       0.329   0.507  17.282  0.00  0.00    -0.192 F 
ATOM      2  F   *** d   1       1.558   0.512  15.587  0.00  0.00    -0.192 F 
ATOM      3  C   *** d   1       0.293   0.480  15.962  0.00  0.00     0.384 C 
ENDROOT
BRANCH   3   4
ATOM      4  C   *** d   1      -0.303  -0.850  15.531  0.00  0.00     0.385 C 
ATOM      5  F   *** d   1      -1.500  -0.633  15.019  0.00  0.00    -0.192 F 
ATOM      6  F   *** d   1      -0.525  -1.580  16.609  0.00  0.00    -0.192 F 
BRANCH   4   7
ATOM      7  C   *** d   1       0.490  -1.694  14.550  0.00  0.00     0.388 C 
ATOM      8  F   *** d   1       1.611  -2.098  15.125  0.00  0.00    -0.192 F 
ATOM      9  F   *** d   1       0.888  -0.937  13.544  0.00  0.00    -0.192 F 
BRANCH   7  10
ATOM     10  C   *** d   1      -0.166  -2.935  13.984  0.00  0.00     0.396 C 
ATOM     11  F   *** d   1       0.002  -2.968  12.653  0.00  0.00    -0.187 F 
ATOM     12  F   *** d   1      -1.487  -2.881  14.204  0.00  0.00    -0.187 F 
BRANCH  10  13
ATOM     13  C   *** d   1       0.391  -4.235  14.625  0.00  0.00     0.222 C 
ATOM     14  O   *** d   1       1.278  -4.913  14.148  0.00  0.00    -0.645 OA
BRANCH  13  15
ATOM     15  O   *** d   1      -0.236  -4.512  15.791  0.00  0.00    -0.772 OA
ATOM     16  H   *** d   1      -0.919  -5.195  15.700  0.00  0.00     0.167 HD
ENDBRANCH  13  15
ENDBRANCH  10  13
ENDBRANCH   7  10
ENDBRANCH   4   7
ENDBRANCH   3   4
BRANCH   3  17
ATOM     17  C   *** d   1      -0.386   1.750  15.473  0.00  0.00     0.387 C 
ATOM     18  F   *** d   1      -0.132   2.720  16.330  0.00  0.00    -0.192 F 
ATOM     19  F   *** d   1      -1.694   1.582  15.536  0.00  0.00    -0.192 F 
BRANCH  17  20
ATOM     20  C   *** d   1      -0.042   2.251  14.079  0.00  0.00     0.409 C 
ATOM     21  F   *** d   1      -0.603   1.445  13.193  0.00  0.00    -0.189 F 
ATOM     22  F   *** d   1       1.262   2.116  13.897  0.00  0.00    -0.189 F 
BRANCH  20  23
ATOM     23  C   *** d   1      -0.427   3.670  13.744  0.00  0.00     0.461 C 
ATOM     24  F   *** d   1       0.373   4.524  14.320  0.00  0.00    -0.165 F 
ATOM     25  F   *** d   1      -1.646   3.956  14.121  0.00  0.00    -0.165 F 
ATOM     26  F   *** d   1      -0.352   3.888  12.460  0.00  0.00    -0.165 F 
ENDBRANCH  20  23
ENDBRANCH  17  20
ENDBRANCH   3  17
TORSDOF 8
ENDMDL
MODEL 13
REMARK VINA RESULT:      -5.7      2.538      6.053
REMARK  8 active torsions:
REMARK  status: ('A' for Active; 'I' for Inactive)
REMARK    1  A    between atoms: O_16  and  C_25 
REMARK    2  A    between atoms: C_18  and  C_19 
REMARK    3  A    between atoms: C_18  and  C_20 
REMARK    4  A    between atoms: C_19  and  C_21 
REMARK    5  A    between atoms: C_20  and  C_22 
REMARK    6  A    between atoms: C_21  and  C_23 
REMARK    7  A    between atoms: C_22  and  C_24 
REMARK    8  A    between atoms: C_23  and  C_25 
ROOT
ATOM      1  F   *** d   1      -1.761   1.503  15.448  0.00  0.00    -0.192 F 
ATOM      2  F   *** d   1       0.006   2.313  16.225  0.00  0.00    -0.192 F 
ATOM      3  C   *** d   1      -0.521   1.818  15.120  0.00  0.00     0.384 C 
ENDROOT
BRANCH   3   4
ATOM      4  C   *** d   1       0.217   0.536  14.769  0.00  0.00     0.385 C 
ATOM      5  F   *** d   1       1.498   0.696  15.044  0.00  0.00    -0.192 F 
ATOM      6  F   *** d   1       0.173   0.372  13.459  0.00  0.00    -0.192 F 
BRANCH   4   7
ATOM      7  C   *** d   1      -0.256  -0.751  15.418  0.00  0.00     0.388 C 
ATOM      8  F   *** d   1      -1.547  -0.912  15.184  0.00  0.00    -0.192 F 
ATOM      9  F   *** d   1      -0.168  -0.636  16.731  0.00  0.00    -0.192 F 
BRANCH   7  10
ATOM     10  C   *** d   1       0.413  -2.045  15.006  0.00  0.00     0.396 C 
ATOM     11  F   *** d   1       0.422  -2.899  16.041  0.00  0.00    -0.187 F 
ATOM     12  F   *** d   1       1.695  -1.804  14.695  0.00  0.00    -0.187 F 
BRANCH  10  13
ATOM     13  C   *** d   1      -0.281  -2.697  13.780  0.00  0.00     0.222 C 
ATOM     14  O   *** d   1      -1.297  -3.360  13.835  0.00  0.00    -0.645 OA
BRANCH  13  15
ATOM     15  O   *** d   1       0.390  -2.426  12.637  0.00  0.00    -0.772 OA
ATOM     16  H   *** d   1       0.851  -1.572  12.662  0.00  0.00     0.167 HD
ENDBRANCH  13  15
ENDBRANCH  10  13
ENDBRANCH   7  10
ENDBRANCH   4   7
ENDBRANCH   3   4
BRANCH   3  17
ATOM     17  C   *** d   1      -0.565   2.918  14.072  0.00  0.00     0.387 C 
ATOM     18  F   *** d   1      -0.908   2.385  12.915  0.00  0.00    -0.192 F 
ATOM     19  F   *** d   1       0.661   3.371  13.881  0.00  0.00    -0.192 F 
BRANCH  17  20
ATOM     20  C   *** d   1      -1.473   4.111  14.327  0.00  0.00     0.409 C 
ATOM     21  F   *** d   1      -1.450   4.386  15.621  0.00  0.00    -0.189 F 
ATOM     22  F   *** d   1      -2.719   3.750  14.069  0.00  0.00    -0.189 F 
BRANCH  20  23
ATOM     23  C   *** d   1      -1.174   5.378  13.565  0.00  0.00     0.461 C 
ATOM     24  F   *** d   1      -0.980   5.132  12.299  0.00  0.00    -0.165 F 
ATOM     25  F   *** d   1      -0.110   5.990  14.015  0.00  0.00    -0.165 F 
ATOM     26  F   *** d   1      -2.170   6.218  13.639  0.00  0.00    -0.165 F 
ENDBRANCH  20  23
ENDBRANCH  17  20
ENDBRANCH   3  17
TORSDOF 8
ENDMDL
MODEL 14
REMARK VINA RESULT:      -5.7     21.378     23.145
REMARK  8 active torsions:
REMARK  status: ('A' for Active; 'I' for Inactive)
REMARK    1  A    between atoms: O_16  and  C_25 
REMARK    2  A    between atoms: C_18  and  C_19 
REMARK    3  A    between atoms: C_18  and  C_20 
REMARK    4  A    between atoms: C_19  and  C_21 
REMARK    5  A    between atoms: C_20  and  C_22 
REMARK    6  A    between atoms: C_21  and  C_23 
REMARK    7  A    between atoms: C_22  and  C_24 
REMARK    8  A    between atoms: C_23  and  C_25 
ROOT
ATOM      1  F   *** d   1      -9.200   6.774  -7.311  0.00  0.00    -0.192 F 
ATOM      2  F   *** d   1      -8.781   8.658  -6.502  0.00  0.00    -0.192 F 
ATOM      3  C   *** d   1      -8.617   7.366  -6.285  0.00  0.00     0.384 C 
ENDROOT
BRANCH   3   4
ATOM      4  C   *** d   1      -9.379   6.990  -5.024  0.00  0.00     0.385 C 
ATOM      5  F   *** d   1      -8.753   7.505  -3.982  0.00  0.00    -0.192 F 
ATOM      6  F   *** d   1      -9.294   5.683  -4.856  0.00  0.00    -0.192 F 
BRANCH   4   7
ATOM      7  C   *** d   1     -10.843   7.379  -4.943  0.00  0.00     0.388 C 
ATOM      8  F   *** d   1     -11.346   7.452  -6.163  0.00  0.00    -0.192 F 
ATOM      9  F   *** d   1     -10.944   8.607  -4.468  0.00  0.00    -0.192 F 
BRANCH   7  10
ATOM     10  C   *** d   1     -11.776   6.484  -4.155  0.00  0.00     0.396 C 
ATOM     11  F   *** d   1     -11.852   5.280  -4.743  0.00  0.00    -0.187 F 
ATOM     12  F   *** d   1     -13.012   7.002  -4.173  0.00  0.00    -0.187 F 
BRANCH  10  13
ATOM     13  C   *** d   1     -11.326   6.328  -2.677  0.00  0.00     0.222 C 
ATOM     14  O   *** d   1     -11.244   7.242  -1.881  0.00  0.00    -0.645 OA
BRANCH  13  15
ATOM     15  O   *** d   1     -11.042   5.038  -2.386  0.00  0.00    -0.772 OA
ATOM     16  H   *** d   1     -11.793   4.563  -1.997  0.00  0.00     0.167 HD
ENDBRANCH  13  15
ENDBRANCH  10  13
ENDBRANCH   7  10
ENDBRANCH   4   7
ENDBRANCH   3   4
BRANCH   3  17
ATOM     17  C   *** d   1      -7.130   7.054  -6.331  0.00  0.00     0.387 C 
ATOM     18  F   *** d   1      -6.865   6.426  -7.461  0.00  0.00    -0.192 F 
ATOM     19  F   *** d   1      -6.852   6.174  -5.386  0.00  0.00    -0.192 F 
BRANCH  17  20
ATOM     20  C   *** d   1      -6.154   8.213  -6.197  0.00  0.00     0.409 C 
ATOM     21  F   *** d   1      -6.528   8.960  -5.171  0.00  0.00    -0.189 F 
ATOM     22  F   *** d   1      -6.280   8.990  -7.260  0.00  0.00    -0.189 F 
BRANCH  20  23
ATOM     23  C   *** d   1      -4.695   7.867  -6.029  0.00  0.00     0.461 C 
ATOM     24  F   *** d   1      -3.932   8.876  -6.345  0.00  0.00    -0.165 F 
ATOM     25  F   *** d   1      -4.336   6.853  -6.772  0.00  0.00    -0.165 F 
ATOM     26  F   *** d   1      -4.424   7.560  -4.790  0.00  0.00    -0.165 F 
ENDBRANCH  20  23
ENDBRANCH  17  20
ENDBRANCH   3  17
TORSDOF 8
ENDMDL
MODEL 15
REMARK VINA RESULT:      -5.7     11.228     14.518
REMARK  8 active torsions:
REMARK  status: ('A' for Active; 'I' for Inactive)
REMARK    1  A    between atoms: O_16  and  C_25 
REMARK    2  A    between atoms: C_18  and  C_19 
REMARK    3  A    between atoms: C_18  and  C_20 
REMARK    4  A    between atoms: C_19  and  C_21 
REMARK    5  A    between atoms: C_20  and  C_22 
REMARK    6  A    between atoms: C_21  and  C_23 
REMARK    7  A    between atoms: C_22  and  C_24 
REMARK    8  A    between atoms: C_23  and  C_25 
ROOT
ATOM      1  F   *** d   1      10.343   6.401   8.773  0.00  0.00    -0.192 F 
ATOM      2  F   *** d   1      10.610   6.227   6.704  0.00  0.00    -0.192 F 
ATOM      3  C   *** d   1       9.857   6.813   7.616  0.00  0.00     0.384 C 
ENDROOT
BRANCH   3   4
ATOM      4  C   *** d   1       8.438   6.281   7.482  0.00  0.00     0.385 C 
ATOM      5  F   *** d   1       8.182   6.075   6.204  0.00  0.00    -0.192 F 
ATOM      6  F   *** d   1       7.597   7.233   7.845  0.00  0.00    -0.192 F 
BRANCH   4   7
ATOM      7  C   *** d   1       8.081   5.022   8.250  0.00  0.00     0.388 C 
ATOM      8  F   *** d   1       9.186   4.353   8.534  0.00  0.00    -0.192 F 
ATOM      9  F   *** d   1       7.394   4.211   7.467  0.00  0.00    -0.192 F 
BRANCH   7  10
ATOM     10  C   *** d   1       7.331   5.173   9.556  0.00  0.00     0.396 C 
ATOM     11  F   *** d   1       6.148   5.767   9.333  0.00  0.00    -0.187 F 
ATOM     12  F   *** d   1       8.020   5.982  10.375  0.00  0.00    -0.187 F 
BRANCH  10  13
ATOM     13  C   *** d   1       7.119   3.811  10.270  0.00  0.00     0.222 C 
ATOM     14  O   *** d   1       7.885   3.330  11.080  0.00  0.00    -0.645 OA
BRANCH  13  15
ATOM     15  O   *** d   1       5.963   3.228   9.876  0.00  0.00    -0.772 OA
ATOM     16  H   *** d   1       5.764   3.378   8.938  0.00  0.00     0.167 HD
ENDBRANCH  13  15
ENDBRANCH  10  13
ENDBRANCH   7  10
ENDBRANCH   4   7
ENDBRANCH   3   4
BRANCH   3  17
ATOM     17  C   *** d   1      10.060   8.316   7.516  0.00  0.00     0.387 C 
ATOM     18  F   *** d   1      11.350   8.575   7.620  0.00  0.00    -0.192 F 
ATOM     19  F   *** d   1       9.516   8.889   8.574  0.00  0.00    -0.192 F 
BRANCH  17  20
ATOM     20  C   *** d   1       9.537   9.025   6.276  0.00  0.00     0.409 C 
ATOM     21  F   *** d   1       8.240   9.239   6.431  0.00  0.00    -0.189 F 
ATOM     22  F   *** d   1       9.634   8.196   5.249  0.00  0.00    -0.189 F 
BRANCH  20  23
ATOM     23  C   *** d   1      10.195  10.329   5.901  0.00  0.00     0.461 C 
ATOM     24  F   *** d   1       9.491  10.974   5.013  0.00  0.00    -0.165 F 
ATOM     25  F   *** d   1      11.392  10.157   5.406  0.00  0.00    -0.165 F 
ATOM     26  F   *** d   1      10.308  11.114   6.937  0.00  0.00    -0.165 F 
ENDBRANCH  20  23
ENDBRANCH  17  20
ENDBRANCH   3  17
TORSDOF 8
ENDMDL
MODEL 16
REMARK VINA RESULT:      -5.6     23.127     25.382
REMARK  8 active torsions:
REMARK  status: ('A' for Active; 'I' for Inactive)
REMARK    1  A    between atoms: O_16  and  C_25 
REMARK    2  A    between atoms: C_18  and  C_19 
REMARK    3  A    between atoms: C_18  and  C_20 
REMARK    4  A    between atoms: C_19  and  C_21 
REMARK    5  A    between atoms: C_20  and  C_22 
REMARK    6  A    between atoms: C_21  and  C_23 
REMARK    7  A    between atoms: C_22  and  C_24 
REMARK    8  A    between atoms: C_23  and  C_25 
ROOT
ATOM      1  F   *** d   1      -9.133   7.800  -6.199  0.00  0.00    -0.192 F 
ATOM      2  F   *** d   1      -9.284   6.643  -7.937  0.00  0.00    -0.192 F 
ATOM      3  C   *** d   1      -8.585   7.619  -7.387  0.00  0.00     0.384 C 
ENDROOT
BRANCH   3   4
ATOM      4  C   *** d   1      -8.798   8.882  -8.206  0.00  0.00     0.385 C 
ATOM      5  F   *** d   1      -8.468   8.635  -9.460  0.00  0.00    -0.192 F 
ATOM      6  F   *** d   1      -7.932   9.794  -7.804  0.00  0.00    -0.192 F 
BRANCH   4   7
ATOM      7  C   *** d   1     -10.180   9.509  -8.190  0.00  0.00     0.388 C 
ATOM      8  F   *** d   1     -10.344  10.180  -7.062  0.00  0.00    -0.192 F 
ATOM      9  F   *** d   1     -11.093   8.555  -8.144  0.00  0.00    -0.192 F 
BRANCH   7  10
ATOM     10  C   *** d   1     -10.542  10.464  -9.306  0.00  0.00     0.396 C 
ATOM     11  F   *** d   1      -9.426  10.891  -9.917  0.00  0.00    -0.187 F 
ATOM     12  F   *** d   1     -11.137  11.549  -8.789  0.00  0.00    -0.187 F 
BRANCH  10  13
ATOM     13  C   *** d   1     -11.503   9.817 -10.340  0.00  0.00     0.222 C 
ATOM     14  O   *** d   1     -12.711   9.944 -10.332  0.00  0.00    -0.645 OA
BRANCH  13  15
ATOM     15  O   *** d   1     -10.819   9.097 -11.259  0.00  0.00    -0.772 OA
ATOM     16  H   *** d   1     -11.392   8.527 -11.796  0.00  0.00     0.167 HD
ENDBRANCH  13  15
ENDBRANCH  10  13
ENDBRANCH   7  10
ENDBRANCH   4   7
ENDBRANCH   3   4
BRANCH   3  17
ATOM     17  C   *** d   1      -7.157   7.137  -7.190  0.00  0.00     0.387 C 
ATOM     18  F   *** d   1      -6.425   7.564  -8.202  0.00  0.00    -0.192 F 
ATOM     19  F   *** d   1      -7.135   5.821  -7.294  0.00  0.00    -0.192 F 
BRANCH  17  20
ATOM     20  C   *** d   1      -6.447   7.520  -5.901  0.00  0.00     0.409 C 
ATOM     21  F   *** d   1      -6.740   6.619  -4.977  0.00  0.00    -0.189 F 
ATOM     22  F   *** d   1      -6.965   8.655  -5.460  0.00  0.00    -0.189 F 
BRANCH  20  23
ATOM     23  C   *** d   1      -4.947   7.671  -5.961  0.00  0.00     0.461 C 
ATOM     24  F   *** d   1      -4.406   7.478  -4.790  0.00  0.00    -0.165 F 
ATOM     25  F   *** d   1      -4.584   8.857  -6.373  0.00  0.00    -0.165 F 
ATOM     26  F   *** d   1      -4.418   6.796  -6.771  0.00  0.00    -0.165 F 
ENDBRANCH  20  23
ENDBRANCH  17  20
ENDBRANCH   3  17
TORSDOF 8
ENDMDL
MODEL 17
REMARK VINA RESULT:      -5.6      4.061      5.950
REMARK  8 active torsions:
REMARK  status: ('A' for Active; 'I' for Inactive)
REMARK    1  A    between atoms: O_16  and  C_25 
REMARK    2  A    between atoms: C_18  and  C_19 
REMARK    3  A    between atoms: C_18  and  C_20 
REMARK    4  A    between atoms: C_19  and  C_21 
REMARK    5  A    between atoms: C_20  and  C_22 
REMARK    6  A    between atoms: C_21  and  C_23 
REMARK    7  A    between atoms: C_22  and  C_24 
REMARK    8  A    between atoms: C_23  and  C_25 
ROOT
ATOM      1  F   *** d   1       2.057  -3.597  13.237  0.00  0.00    -0.192 F 
ATOM      2  F   *** d   1       2.440  -1.737  12.356  0.00  0.00    -0.192 F 
ATOM      3  C   *** d   1       2.355  -2.344  13.526  0.00  0.00     0.384 C 
ENDROOT
BRANCH   3   4
ATOM      4  C   *** d   1       1.188  -1.743  14.294  0.00  0.00     0.385 C 
ATOM      5  F   *** d   1       0.684  -0.747  13.589  0.00  0.00    -0.192 F 
ATOM      6  F   *** d   1       1.655  -1.177  15.392  0.00  0.00    -0.192 F 
BRANCH   4   7
ATOM      7  C   *** d   1       0.053  -2.670  14.691  0.00  0.00     0.388 C 
ATOM      8  F   *** d   1       0.552  -3.760  15.249  0.00  0.00    -0.192 F 
ATOM      9  F   *** d   1      -0.558  -3.104  13.604  0.00  0.00    -0.192 F 
BRANCH   7  10
ATOM     10  C   *** d   1      -0.993  -2.144  15.650  0.00  0.00     0.396 C 
ATOM     11  F   *** d   1      -2.213  -2.527  15.243  0.00  0.00    -0.187 F 
ATOM     12  F   *** d   1      -0.983  -0.804  15.630  0.00  0.00    -0.187 F 
BRANCH  10  13
ATOM     13  C   *** d   1      -0.742  -2.621  17.107  0.00  0.00     0.222 C 
ATOM     14  O   *** d   1       0.035  -2.096  17.879  0.00  0.00    -0.645 OA
BRANCH  13  15
ATOM     15  O   *** d   1      -1.508  -3.694  17.408  0.00  0.00    -0.772 OA
ATOM     16  H   *** d   1      -2.379  -3.451  17.759  0.00  0.00     0.167 HD
ENDBRANCH  13  15
ENDBRANCH  10  13
ENDBRANCH   7  10
ENDBRANCH   4   7
ENDBRANCH   3   4
BRANCH   3  17
ATOM     17  C   *** d   1       3.724  -2.313  14.185  0.00  0.00     0.387 C 
ATOM     18  F   *** d   1       3.654  -2.960  15.333  0.00  0.00    -0.192 F 
ATOM     19  F   *** d   1       4.006  -1.068  14.519  0.00  0.00    -0.192 F 
BRANCH  17  20
ATOM     20  C   *** d   1       4.904  -2.870  13.403  0.00  0.00     0.409 C 
ATOM     21  F   *** d   1       5.967  -2.126  13.662  0.00  0.00    -0.189 F 
ATOM     22  F   *** d   1       4.666  -2.702  12.112  0.00  0.00    -0.189 F 
BRANCH  20  23
ATOM     23  C   *** d   1       5.264  -4.316  13.638  0.00  0.00     0.461 C 
ATOM     24  F   *** d   1       4.198  -5.063  13.699  0.00  0.00    -0.165 F 
ATOM     25  F   *** d   1       5.929  -4.487  14.751  0.00  0.00    -0.165 F 
ATOM     26  F   *** d   1       5.999  -4.782  12.667  0.00  0.00    -0.165 F 
ENDBRANCH  20  23
ENDBRANCH  17  20
ENDBRANCH   3  17
TORSDOF 8
ENDMDL
MODEL 18
REMARK VINA RESULT:      -5.3     13.095     15.425
REMARK  8 active torsions:
REMARK  status: ('A' for Active; 'I' for Inactive)
REMARK    1  A    between atoms: O_16  and  C_25 
REMARK    2  A    between atoms: C_18  and  C_19 
REMARK    3  A    between atoms: C_18  and  C_20 
REMARK    4  A    between atoms: C_19  and  C_21 
REMARK    5  A    between atoms: C_20  and  C_22 
REMARK    6  A    between atoms: C_21  and  C_23 
REMARK    7  A    between atoms: C_22  and  C_24 
REMARK    8  A    between atoms: C_23  and  C_25 
ROOT
ATOM      1  F   *** d   1       9.134   8.172   8.275  0.00  0.00    -0.192 F 
ATOM      2  F   *** d   1       7.406   8.289   7.100  0.00  0.00    -0.192 F 
ATOM      3  C   *** d   1       8.714   8.129   7.024  0.00  0.00     0.384 C 
ENDROOT
BRANCH   3   4
ATOM      4  C   *** d   1       9.301   9.321   6.285  0.00  0.00     0.385 C 
ATOM      5  F   *** d   1       8.410  10.295   6.275  0.00  0.00    -0.192 F 
ATOM      6  F   *** d   1       9.455   8.994   5.014  0.00  0.00    -0.192 F 
BRANCH   4   7
ATOM      7  C   *** d   1      10.618   9.883   6.786  0.00  0.00     0.388 C 
ATOM      8  F   *** d   1      11.539   8.935   6.757  0.00  0.00    -0.192 F 
ATOM      9  F   *** d   1      10.503  10.196   8.064  0.00  0.00    -0.192 F 
BRANCH   7  10
ATOM     10  C   *** d   1      11.211  11.069   6.056  0.00  0.00     0.396 C 
ATOM     11  F   *** d   1      10.962  12.195   6.744  0.00  0.00    -0.187 F 
ATOM     12  F   *** d   1      10.611  11.205   4.865  0.00  0.00    -0.187 F 
BRANCH  10  13
ATOM     13  C   *** d   1      12.738  10.911   5.827  0.00  0.00     0.222 C 
ATOM     14  O   *** d   1      13.583  11.049   6.689  0.00  0.00    -0.645 OA
BRANCH  13  15
ATOM     15  O   *** d   1      13.009  10.592   4.540  0.00  0.00    -0.772 OA
ATOM     16  H   *** d   1      12.537  11.153   3.904  0.00  0.00     0.167 HD
ENDBRANCH  13  15
ENDBRANCH  10  13
ENDBRANCH   7  10
ENDBRANCH   4   7
ENDBRANCH   3   4
BRANCH   3  17
ATOM     17  C   *** d   1       8.998   6.743   6.467  0.00  0.00     0.387 C 
ATOM     18  F   *** d   1      10.255   6.700   6.065  0.00  0.00    -0.192 F 
ATOM     19  F   *** d   1       8.289   6.575   5.367  0.00  0.00    -0.192 F 
BRANCH  17  20
ATOM     20  C   *** d   1       8.753   5.547   7.374  0.00  0.00     0.409 C 
ATOM     21  F   *** d   1       8.273   4.556   6.640  0.00  0.00    -0.189 F 
ATOM     22  F   *** d   1       7.784   5.856   8.220  0.00  0.00    -0.189 F 
BRANCH  20  23
ATOM     23  C   *** d   1       9.930   5.030   8.163  0.00  0.00     0.461 C 
ATOM     24  F   *** d   1       9.560   4.119   9.019  0.00  0.00    -0.165 F 
ATOM     25  F   *** d   1      10.534   5.977   8.832  0.00  0.00    -0.165 F 
ATOM     26  F   *** d   1      10.816   4.477   7.380  0.00  0.00    -0.165 F 
ENDBRANCH  20  23
ENDBRANCH  17  20
ENDBRANCH   3  17
TORSDOF 8
ENDMDL
MODEL 19
REMARK VINA RESULT:      -5.3      1.628      2.819
REMARK  8 active torsions:
REMARK  status: ('A' for Active; 'I' for Inactive)
REMARK    1  A    between atoms: O_16  and  C_25 
REMARK    2  A    between atoms: C_18  and  C_19 
REMARK    3  A    between atoms: C_18  and  C_20 
REMARK    4  A    between atoms: C_19  and  C_21 
REMARK    5  A    between atoms: C_20  and  C_22 
REMARK    6  A    between atoms: C_21  and  C_23 
REMARK    7  A    between atoms: C_22  and  C_24 
REMARK    8  A    between atoms: C_23  and  C_25 
ROOT
ATOM      1  F   *** d   1       1.976  -0.813  16.142  0.00  0.00    -0.192 F 
ATOM      2  F   *** d   1       0.484  -2.264  16.372  0.00  0.00    -0.192 F 
ATOM      3  C   *** d   1       0.893  -1.302  15.565  0.00  0.00     0.384 C 
ENDROOT
BRANCH   3   4
ATOM      4  C   *** d   1      -0.166  -0.212  15.543  0.00  0.00     0.385 C 
ATOM      5  F   *** d   1      -0.443   0.136  16.786  0.00  0.00    -0.192 F 
ATOM      6  F   *** d   1      -1.290  -0.727  15.078  0.00  0.00    -0.192 F 
BRANCH   4   7
ATOM      7  C   *** d   1       0.133   1.047  14.750  0.00  0.00     0.388 C 
ATOM      8  F   *** d   1      -0.147   0.840  13.475  0.00  0.00    -0.192 F 
ATOM      9  F   *** d   1       1.433   1.278  14.771  0.00  0.00    -0.192 F 
BRANCH   7  10
ATOM     10  C   *** d   1      -0.585   2.322  15.139  0.00  0.00     0.396 C 
ATOM     11  F   *** d   1      -0.048   2.819  16.264  0.00  0.00    -0.187 F 
ATOM     12  F   *** d   1      -1.867   2.045  15.413  0.00  0.00    -0.187 F 
BRANCH  10  13
ATOM     13  C   *** d   1      -0.538   3.387  14.009  0.00  0.00     0.222 C 
ATOM     14  O   *** d   1       0.466   3.969  13.653  0.00  0.00    -0.645 OA
BRANCH  13  15
ATOM     15  O   *** d   1      -1.762   3.577  13.467  0.00  0.00    -0.772 OA
ATOM     16  H   *** d   1      -2.239   4.325  13.862  0.00  0.00     0.167 HD
ENDBRANCH  13  15
ENDBRANCH  10  13
ENDBRANCH   7  10
ENDBRANCH   4   7
ENDBRANCH   3   4
BRANCH   3  17
ATOM     17  C   *** d   1       1.294  -1.924  14.237  0.00  0.00     0.387 C 
ATOM     18  F   *** d   1       2.134  -1.110  13.627  0.00  0.00    -0.192 F 
ATOM     19  F   *** d   1       0.234  -1.964  13.450  0.00  0.00    -0.192 F 
BRANCH  17  20
ATOM     20  C   *** d   1       1.916  -3.312  14.259  0.00  0.00     0.409 C 
ATOM     21  F   *** d   1       2.726  -3.393  15.303  0.00  0.00    -0.189 F 
ATOM     22  F   *** d   1       2.699  -3.436  13.199  0.00  0.00    -0.189 F 
BRANCH  20  23
ATOM     23  C   *** d   1       0.972  -4.488  14.296  0.00  0.00     0.461 C 
ATOM     24  F   *** d   1      -0.265  -4.105  14.142  0.00  0.00    -0.165 F 
ATOM     25  F   *** d   1       1.043  -5.147  15.422  0.00  0.00    -0.165 F 
ATOM     26  F   *** d   1       1.230  -5.329  13.333  0.00  0.00    -0.165 F 
ENDBRANCH  20  23
ENDBRANCH  17  20
ENDBRANCH   3  17
TORSDOF 8
ENDMDL
MODEL 20
REMARK VINA RESULT:      -5.3      2.945      6.007
REMARK  8 active torsions:
REMARK  status: ('A' for Active; 'I' for Inactive)
REMARK    1  A    between atoms: O_16  and  C_25 
REMARK    2  A    between atoms: C_18  and  C_19 
REMARK    3  A    between atoms: C_18  and  C_20 
REMARK    4  A    between atoms: C_19  and  C_21 
REMARK    5  A    between atoms: C_20  and  C_22 
REMARK    6  A    between atoms: C_21  and  C_23 
REMARK    7  A    between atoms: C_22  and  C_24 
REMARK    8  A    between atoms: C_23  and  C_25 
ROOT
ATOM      1  F   *** d   1      -0.320   0.067  13.484  0.00  0.00    -0.192 F 
ATOM      2  F   *** d   1      -1.481   0.100  15.226  0.00  0.00    -0.192 F 
ATOM      3  C   *** d   1      -0.243   0.243  14.791  0.00  0.00     0.384 C 
ENDROOT
BRANCH   3   4
ATOM      4  C   *** d   1       0.602  -0.880  15.372  0.00  0.00     0.385 C 
ATOM      5  F   *** d   1       1.112  -0.476  16.520  0.00  0.00    -0.192 F 
ATOM      6  F   *** d   1       1.648  -1.067  14.587  0.00  0.00    -0.192 F 
BRANCH   4   7
ATOM      7  C   *** d   1      -0.065  -2.225  15.591  0.00  0.00     0.388 C 
ATOM      8  F   *** d   1      -1.241  -2.042  16.167  0.00  0.00    -0.192 F 
ATOM      9  F   *** d   1       0.631  -2.921  16.471  0.00  0.00    -0.192 F 
BRANCH   7  10
ATOM     10  C   *** d   1      -0.319  -3.100  14.382  0.00  0.00     0.396 C 
ATOM     11  F   *** d   1       0.050  -2.450  13.268  0.00  0.00    -0.187 F 
ATOM     12  F   *** d   1      -1.634  -3.337  14.272  0.00  0.00    -0.187 F 
BRANCH  10  13
ATOM     13  C   *** d   1       0.424  -4.460  14.479  0.00  0.00     0.222 C 
ATOM     14  O   *** d   1      -0.041  -5.465  14.977  0.00  0.00    -0.645 OA
BRANCH  13  15
ATOM     15  O   *** d   1       1.658  -4.383  13.929  0.00  0.00    -0.772 OA
ATOM     16  H   *** d   1       2.227  -3.730  14.367  0.00  0.00     0.167 HD
ENDBRANCH  13  15
ENDBRANCH  10  13
ENDBRANCH   7  10
ENDBRANCH   4   7
ENDBRANCH   3   4
BRANCH   3  17
ATOM     17  C   *** d   1       0.201   1.672  15.058  0.00  0.00     0.387 C 
ATOM     18  F   *** d   1       1.503   1.753  14.860  0.00  0.00    -0.192 F 
ATOM     19  F   *** d   1       0.041   1.932  16.343  0.00  0.00    -0.192 F 
BRANCH  17  20
ATOM     20  C   *** d   1      -0.466   2.786  14.266  0.00  0.00     0.409 C 
ATOM     21  F   *** d   1      -0.858   2.295  13.101  0.00  0.00    -0.189 F 
ATOM     22  F   *** d   1       0.450   3.695  13.972  0.00  0.00    -0.189 F 
BRANCH  20  23
ATOM     23  C   *** d   1      -1.638   3.481  14.911  0.00  0.00     0.461 C 
ATOM     24  F   *** d   1      -2.340   4.139  14.030  0.00  0.00    -0.165 F 
ATOM     25  F   *** d   1      -1.267   4.330  15.832  0.00  0.00    -0.165 F 
ATOM     26  F   *** d   1      -2.445   2.622  15.472  0.00  0.00    -0.165 F 
ENDBRANCH  20  23
ENDBRANCH  17  20
ENDBRANCH   3  17
TORSDOF 8
ENDMDL
