MODEL 1
REMARK VINA RESULT:      -8.5      0.000      0.000
REMARK  8 active torsions:
REMARK  status: ('A' for Active; 'I' for Inactive)
REMARK    1  A    between atoms: O_16  and  C_25 
REMARK    2  A    between atoms: C_18  and  C_19 
REMARK    3  A    between atoms: C_18  and  C_20 
REMARK    4  A    between atoms: C_19  and  C_21 
REMARK    5  A    between atoms: C_20  and  C_22 
REMARK    6  A    between atoms: C_21  and  C_23 
REMARK    7  A    between atoms: C_22  and  C_24 
REMARK    8  A    between atoms: C_23  and  C_25 
ROOT
ATOM      1  F   *** d   1     -13.192  14.592   0.348  0.00  0.00    -0.192 F 
ATOM      2  F   *** d   1     -13.191  15.436  -1.567  0.00  0.00    -0.192 F 
ATOM      3  C   *** d   1     -13.369  14.295  -0.926  0.00  0.00     0.384 C 
ENDROOT
BRANCH   3   4
ATOM      4  C   *** d   1     -12.270  13.332  -1.346  0.00  0.00     0.385 C 
ATOM      5  F   *** d   1     -12.684  12.097  -1.129  0.00  0.00    -0.192 F 
ATOM      6  F   *** d   1     -11.240  13.490  -0.534  0.00  0.00    -0.192 F 
BRANCH   4   7
ATOM      7  C   *** d   1     -11.760  13.422  -2.772  0.00  0.00     0.388 C 
ATOM      8  F   *** d   1     -10.728  14.248  -2.818  0.00  0.00    -0.192 F 
ATOM      9  F   *** d   1     -12.678  13.995  -3.530  0.00  0.00    -0.192 F 
BRANCH   7  10
ATOM     10  C   *** d   1     -11.310  12.146  -3.450  0.00  0.00     0.396 C 
ATOM     11  F   *** d   1     -10.217  11.668  -2.835  0.00  0.00    -0.187 F 
ATOM     12  F   *** d   1     -10.955  12.414  -4.714  0.00  0.00    -0.187 F 
BRANCH  10  13
ATOM     13  C   *** d   1     -12.427  11.067  -3.467  0.00  0.00     0.222 C 
ATOM     14  O   *** d   1     -13.537  11.232  -3.931  0.00  0.00    -0.645 OA
BRANCH  13  15
ATOM     15  O   *** d   1     -12.001   9.914  -2.901  0.00  0.00    -0.772 OA
ATOM     16  H   *** d   1     -11.186   9.574  -3.303  0.00  0.00     0.167 HD
ENDBRANCH  13  15
ENDBRANCH  10  13
ENDBRANCH   7  10
ENDBRANCH   4   7
ENDBRANCH   3   4
BRANCH   3  17
ATOM     17  C   *** d   1     -14.810  13.852  -1.121  0.00  0.00     0.387 C 
ATOM     18  F   *** d   1     -15.038  12.807  -0.349  0.00  0.00    -0.192 F 
ATOM     19  F   *** d   1     -14.950  13.396  -2.352  0.00  0.00    -0.192 F 
BRANCH  17  20
ATOM     20  C   *** d   1     -15.910  14.872  -0.869  0.00  0.00     0.409 C 
ATOM     21  F   *** d   1     -15.655  15.952  -1.590  0.00  0.00    -0.189 F 
ATOM     22  F   *** d   1     -15.832  15.267   0.392  0.00  0.00    -0.189 F 
BRANCH  20  23
ATOM     23  C   *** d   1     -17.327  14.437  -1.146  0.00  0.00     0.461 C 
ATOM     24  F   *** d   1     -17.801  15.022  -2.211  0.00  0.00    -0.165 F 
ATOM     25  F   *** d   1     -18.134  14.710  -0.155  0.00  0.00    -0.165 F 
ATOM     26  F   *** d   1     -17.391  13.151  -1.361  0.00  0.00    -0.165 F 
ENDBRANCH  20  23
ENDBRANCH  17  20
ENDBRANCH   3  17
TORSDOF 8
ENDMDL
MODEL 2
REMARK VINA RESULT:      -7.8     13.398     15.828
REMARK  8 active torsions:
REMARK  status: ('A' for Active; 'I' for Inactive)
REMARK    1  A    between atoms: O_16  and  C_25 
REMARK    2  A    between atoms: C_18  and  C_19 
REMARK    3  A    between atoms: C_18  and  C_20 
REMARK    4  A    between atoms: C_19  and  C_21 
REMARK    5  A    between atoms: C_20  and  C_22 
REMARK    6  A    between atoms: C_21  and  C_23 
REMARK    7  A    between atoms: C_22  and  C_24 
REMARK    8  A    between atoms: C_23  and  C_25 
ROOT
ATOM      1  F   *** d   1     -13.975  17.540 -17.753  0.00  0.00    -0.192 F 
ATOM      2  F   *** d   1     -13.536  17.582 -15.707  0.00  0.00    -0.192 F 
ATOM      3  C   *** d   1     -14.000  16.796 -16.661  0.00  0.00     0.384 C 
ENDROOT
BRANCH   3   4
ATOM      4  C   *** d   1     -15.450  16.463 -16.347  0.00  0.00     0.385 C 
ATOM      5  F   *** d   1     -15.657  15.186 -16.608  0.00  0.00    -0.192 F 
ATOM      6  F   *** d   1     -16.224  17.111 -17.199  0.00  0.00    -0.192 F 
BRANCH   4   7
ATOM      7  C   *** d   1     -15.952  16.752 -14.944  0.00  0.00     0.388 C 
ATOM      8  F   *** d   1     -15.691  18.011 -14.636  0.00  0.00    -0.192 F 
ATOM      9  F   *** d   1     -15.253  16.046 -14.075  0.00  0.00    -0.192 F 
BRANCH   7  10
ATOM     10  C   *** d   1     -17.423  16.543 -14.657  0.00  0.00     0.396 C 
ATOM     11  F   *** d   1     -18.152  17.414 -15.372  0.00  0.00    -0.187 F 
ATOM     12  F   *** d   1     -17.667  16.807 -13.366  0.00  0.00    -0.187 F 
BRANCH  10  13
ATOM     13  C   *** d   1     -17.877  15.090 -14.961  0.00  0.00     0.222 C 
ATOM     14  O   *** d   1     -17.697  14.143 -14.223  0.00  0.00    -0.645 OA
BRANCH  13  15
ATOM     15  O   *** d   1     -18.508  15.015 -16.156  0.00  0.00    -0.772 OA
ATOM     16  H   *** d   1     -18.238  15.715 -16.771  0.00  0.00     0.167 HD
ENDBRANCH  13  15
ENDBRANCH  10  13
ENDBRANCH   7  10
ENDBRANCH   4   7
ENDBRANCH   3   4
BRANCH   3  17
ATOM     17  C   *** d   1     -13.033  15.638 -16.846  0.00  0.00     0.387 C 
ATOM     18  F   *** d   1     -13.483  14.863 -17.814  0.00  0.00    -0.192 F 
ATOM     19  F   *** d   1     -13.069  14.880 -15.766  0.00  0.00    -0.192 F 
BRANCH  17  20
ATOM     20  C   *** d   1     -11.577  15.965 -17.142  0.00  0.00     0.409 C 
ATOM     21  F   *** d   1     -10.813  15.243 -16.339  0.00  0.00    -0.189 F 
ATOM     22  F   *** d   1     -11.354  17.224 -16.800  0.00  0.00    -0.189 F 
BRANCH  20  23
ATOM     23  C   *** d   1     -11.103  15.765 -18.560  0.00  0.00     0.461 C 
ATOM     24  F   *** d   1     -12.057  16.009 -19.415  0.00  0.00    -0.165 F 
ATOM     25  F   *** d   1     -10.684  14.546 -18.776  0.00  0.00    -0.165 F 
ATOM     26  F   *** d   1     -10.121  16.574 -18.847  0.00  0.00    -0.165 F 
ENDBRANCH  20  23
ENDBRANCH  17  20
ENDBRANCH   3  17
TORSDOF 8
ENDMDL
MODEL 3
REMARK VINA RESULT:      -7.8     13.458     15.859
REMARK  8 active torsions:
REMARK  status: ('A' for Active; 'I' for Inactive)
REMARK    1  A    between atoms: O_16  and  C_25 
REMARK    2  A    between atoms: C_18  and  C_19 
REMARK    3  A    between atoms: C_18  and  C_20 
REMARK    4  A    between atoms: C_19  and  C_21 
REMARK    5  A    between atoms: C_20  and  C_22 
REMARK    6  A    between atoms: C_21  and  C_23 
REMARK    7  A    between atoms: C_22  and  C_24 
REMARK    8  A    between atoms: C_23  and  C_25 
ROOT
ATOM      1  F   *** d   1     -13.835  15.538 -15.386  0.00  0.00    -0.192 F 
ATOM      2  F   *** d   1     -13.944  14.861 -17.363  0.00  0.00    -0.192 F 
ATOM      3  C   *** d   1     -14.001  15.956 -16.628  0.00  0.00     0.384 C 
ENDROOT
BRANCH   3   4
ATOM      4  C   *** d   1     -15.398  16.543 -16.748  0.00  0.00     0.385 C 
ATOM      5  F   *** d   1     -16.180  15.658 -17.338  0.00  0.00    -0.192 F 
ATOM      6  F   *** d   1     -15.354  17.564 -17.585  0.00  0.00    -0.192 F 
BRANCH   4   7
ATOM      7  C   *** d   1     -16.079  17.010 -15.475  0.00  0.00     0.388 C 
ATOM      8  F   *** d   1     -17.049  17.855 -15.781  0.00  0.00    -0.192 F 
ATOM      9  F   *** d   1     -15.229  17.725 -14.761  0.00  0.00    -0.192 F 
BRANCH   7  10
ATOM     10  C   *** d   1     -16.699  15.964 -14.574  0.00  0.00     0.396 C 
ATOM     11  F   *** d   1     -15.955  15.822 -13.466  0.00  0.00    -0.187 F 
ATOM     12  F   *** d   1     -16.693  14.777 -15.197  0.00  0.00    -0.187 F 
BRANCH  10  13
ATOM     13  C   *** d   1     -18.163  16.315 -14.191  0.00  0.00     0.222 C 
ATOM     14  O   *** d   1     -18.478  17.087 -13.308  0.00  0.00    -0.645 OA
BRANCH  13  15
ATOM     15  O   *** d   1     -19.045  15.653 -14.975  0.00  0.00    -0.772 OA
ATOM     16  H   *** d   1     -18.986  14.689 -14.880  0.00  0.00     0.167 HD
ENDBRANCH  13  15
ENDBRANCH  10  13
ENDBRANCH   7  10
ENDBRANCH   4   7
ENDBRANCH   3   4
BRANCH   3  17
ATOM     17  C   *** d   1     -12.826  16.846 -16.998  0.00  0.00     0.387 C 
ATOM     18  F   *** d   1     -12.752  17.831 -16.123  0.00  0.00    -0.192 F 
ATOM     19  F   *** d   1     -13.089  17.439 -18.148  0.00  0.00    -0.192 F 
BRANCH  17  20
ATOM     20  C   *** d   1     -11.451  16.206 -17.102  0.00  0.00     0.409 C 
ATOM     21  F   *** d   1     -11.379  15.220 -16.223  0.00  0.00    -0.189 F 
ATOM     22  F   *** d   1     -10.547  17.090 -16.711  0.00  0.00    -0.189 F 
BRANCH  20  23
ATOM     23  C   *** d   1     -11.042  15.671 -18.452  0.00  0.00     0.461 C 
ATOM     24  F   *** d   1     -10.139  16.431 -19.006  0.00  0.00    -0.165 F 
ATOM     25  F   *** d   1     -12.050  15.591 -19.280  0.00  0.00    -0.165 F 
ATOM     26  F   *** d   1     -10.523  14.479 -18.350  0.00  0.00    -0.165 F 
ENDBRANCH  20  23
ENDBRANCH  17  20
ENDBRANCH   3  17
TORSDOF 8
ENDMDL
MODEL 4
REMARK VINA RESULT:      -7.7     13.312     15.699
REMARK  8 active torsions:
REMARK  status: ('A' for Active; 'I' for Inactive)
REMARK    1  A    between atoms: O_16  and  C_25 
REMARK    2  A    between atoms: C_18  and  C_19 
REMARK    3  A    between atoms: C_18  and  C_20 
REMARK    4  A    between atoms: C_19  and  C_21 
REMARK    5  A    between atoms: C_20  and  C_22 
REMARK    6  A    between atoms: C_21  and  C_23 
REMARK    7  A    between atoms: C_22  and  C_24 
REMARK    8  A    between atoms: C_23  and  C_25 
ROOT
ATOM      1  F   *** d   1     -13.477  15.282 -15.717  0.00  0.00    -0.192 F 
ATOM      2  F   *** d   1     -14.398  15.655 -17.560  0.00  0.00    -0.192 F 
ATOM      3  C   *** d   1     -13.950  16.256 -16.473  0.00  0.00     0.384 C 
ENDROOT
BRANCH   3   4
ATOM      4  C   *** d   1     -15.131  16.886 -15.751  0.00  0.00     0.385 C 
ATOM      5  F   *** d   1     -15.439  18.020 -16.352  0.00  0.00    -0.192 F 
ATOM      6  F   *** d   1     -14.743  17.241 -14.540  0.00  0.00    -0.192 F 
BRANCH   4   7
ATOM      7  C   *** d   1     -16.396  16.059 -15.614  0.00  0.00     0.388 C 
ATOM      8  F   *** d   1     -16.176  14.840 -16.077  0.00  0.00    -0.192 F 
ATOM      9  F   *** d   1     -17.330  16.552 -16.407  0.00  0.00    -0.192 F 
BRANCH   7  10
ATOM     10  C   *** d   1     -16.987  15.885 -14.231  0.00  0.00     0.396 C 
ATOM     11  F   *** d   1     -17.472  17.058 -13.796  0.00  0.00    -0.187 F 
ATOM     12  F   *** d   1     -16.020  15.526 -13.375  0.00  0.00    -0.187 F 
BRANCH  10  13
ATOM     13  C   *** d   1     -18.101  14.804 -14.203  0.00  0.00     0.222 C 
ATOM     14  O   *** d   1     -17.935  13.652 -13.857  0.00  0.00    -0.645 OA
BRANCH  13  15
ATOM     15  O   *** d   1     -19.287  15.313 -14.608  0.00  0.00    -0.772 OA
ATOM     16  H   *** d   1     -19.200  15.927 -15.355  0.00  0.00     0.167 HD
ENDBRANCH  13  15
ENDBRANCH  10  13
ENDBRANCH   7  10
ENDBRANCH   4   7
ENDBRANCH   3   4
BRANCH   3  17
ATOM     17  C   *** d   1     -12.796  17.164 -16.865  0.00  0.00     0.387 C 
ATOM     18  F   *** d   1     -12.630  18.067 -15.917  0.00  0.00    -0.192 F 
ATOM     19  F   *** d   1     -13.147  17.859 -17.931  0.00  0.00    -0.192 F 
BRANCH  17  20
ATOM     20  C   *** d   1     -11.446  16.522 -17.145  0.00  0.00     0.409 C 
ATOM     21  F   *** d   1     -11.352  15.413 -16.429  0.00  0.00    -0.189 F 
ATOM     22  F   *** d   1     -10.499  17.320 -16.679  0.00  0.00    -0.189 F 
BRANCH  20  23
ATOM     23  C   *** d   1     -11.128  16.190 -18.582  0.00  0.00     0.461 C 
ATOM     24  F   *** d   1     -10.761  17.254 -19.241  0.00  0.00    -0.165 F 
ATOM     25  F   *** d   1     -12.150  15.671 -19.210  0.00  0.00    -0.165 F 
ATOM     26  F   *** d   1     -10.144  15.337 -18.661  0.00  0.00    -0.165 F 
ENDBRANCH  20  23
ENDBRANCH  17  20
ENDBRANCH   3  17
TORSDOF 8
ENDMDL
MODEL 5
REMARK VINA RESULT:      -7.6     13.698     15.982
REMARK  8 active torsions:
REMARK  status: ('A' for Active; 'I' for Inactive)
REMARK    1  A    between atoms: O_16  and  C_25 
REMARK    2  A    between atoms: C_18  and  C_19 
REMARK    3  A    between atoms: C_18  and  C_20 
REMARK    4  A    between atoms: C_19  and  C_21 
REMARK    5  A    between atoms: C_20  and  C_22 
REMARK    6  A    between atoms: C_21  and  C_23 
REMARK    7  A    between atoms: C_22  and  C_24 
REMARK    8  A    between atoms: C_23  and  C_25 
ROOT
ATOM      1  F   *** d   1     -13.632  16.033 -15.890  0.00  0.00    -0.192 F 
ATOM      2  F   *** d   1     -14.469  16.926 -17.588  0.00  0.00    -0.192 F 
ATOM      3  C   *** d   1     -13.846  17.205 -16.458  0.00  0.00     0.384 C 
ENDROOT
BRANCH   3   4
ATOM      4  C   *** d   1     -14.794  17.997 -15.570  0.00  0.00     0.385 C 
ATOM      5  F   *** d   1     -14.674  19.279 -15.860  0.00  0.00    -0.192 F 
ATOM      6  F   *** d   1     -14.381  17.894 -14.319  0.00  0.00    -0.192 F 
BRANCH   4   7
ATOM      7  C   *** d   1     -16.266  17.633 -15.610  0.00  0.00     0.388 C 
ATOM      8  F   *** d   1     -16.677  17.604 -16.866  0.00  0.00    -0.192 F 
ATOM      9  F   *** d   1     -16.971  18.601 -15.052  0.00  0.00    -0.192 F 
BRANCH   7  10
ATOM     10  C   *** d   1     -16.692  16.317 -14.995  0.00  0.00     0.396 C 
ATOM     11  F   *** d   1     -17.746  16.514 -14.188  0.00  0.00    -0.187 F 
ATOM     12  F   *** d   1     -15.702  15.844 -14.226  0.00  0.00    -0.187 F 
BRANCH  10  13
ATOM     13  C   *** d   1     -17.035  15.253 -16.072  0.00  0.00     0.222 C 
ATOM     14  O   *** d   1     -16.212  14.613 -16.696  0.00  0.00    -0.645 OA
BRANCH  13  15
ATOM     15  O   *** d   1     -18.373  15.124 -16.222  0.00  0.00    -0.772 OA
ATOM     16  H   *** d   1     -18.873  15.832 -15.786  0.00  0.00     0.167 HD
ENDBRANCH  13  15
ENDBRANCH  10  13
ENDBRANCH   7  10
ENDBRANCH   4   7
ENDBRANCH   3   4
BRANCH   3  17
ATOM     17  C   *** d   1     -12.501  17.832 -16.791  0.00  0.00     0.387 C 
ATOM     18  F   *** d   1     -12.123  18.583 -15.774  0.00  0.00    -0.192 F 
ATOM     19  F   *** d   1     -12.664  18.679 -17.790  0.00  0.00    -0.192 F 
BRANCH  17  20
ATOM     20  C   *** d   1     -11.350  16.903 -17.144  0.00  0.00     0.409 C 
ATOM     21  F   *** d   1     -11.484  15.785 -16.449  0.00  0.00    -0.189 F 
ATOM     22  F   *** d   1     -10.225  17.450 -16.712  0.00  0.00    -0.189 F 
BRANCH  20  23
ATOM     23  C   *** d   1     -11.179  16.542 -18.598  0.00  0.00     0.461 C 
ATOM     24  F   *** d   1     -10.177  15.725 -18.767  0.00  0.00    -0.165 F 
ATOM     25  F   *** d   1     -10.962  17.591 -19.348  0.00  0.00    -0.165 F 
ATOM     26  F   *** d   1     -12.240  15.941 -19.063  0.00  0.00    -0.165 F 
ENDBRANCH  20  23
ENDBRANCH  17  20
ENDBRANCH   3  17
TORSDOF 8
ENDMDL
MODEL 6
REMARK VINA RESULT:      -7.4     13.673     15.217
REMARK  8 active torsions:
REMARK  status: ('A' for Active; 'I' for Inactive)
REMARK    1  A    between atoms: O_16  and  C_25 
REMARK    2  A    between atoms: C_18  and  C_19 
REMARK    3  A    between atoms: C_18  and  C_20 
REMARK    4  A    between atoms: C_19  and  C_21 
REMARK    5  A    between atoms: C_20  and  C_22 
REMARK    6  A    between atoms: C_21  and  C_23 
REMARK    7  A    between atoms: C_22  and  C_24 
REMARK    8  A    between atoms: C_23  and  C_25 
ROOT
ATOM      1  F   *** d   1     -15.066  15.204 -17.380  0.00  0.00    -0.192 F 
ATOM      2  F   *** d   1     -14.185  15.255 -15.483  0.00  0.00    -0.192 F 
ATOM      3  C   *** d   1     -14.733  16.027 -16.403  0.00  0.00     0.384 C 
ENDROOT
BRANCH   3   4
ATOM      4  C   *** d   1     -13.669  16.979 -16.927  0.00  0.00     0.385 C 
ATOM      5  F   *** d   1     -13.300  17.783 -15.947  0.00  0.00    -0.192 F 
ATOM      6  F   *** d   1     -14.222  17.774 -17.825  0.00  0.00    -0.192 F 
BRANCH   4   7
ATOM      7  C   *** d   1     -12.421  16.373 -17.543  0.00  0.00     0.388 C 
ATOM      8  F   *** d   1     -12.759  15.325 -18.275  0.00  0.00    -0.192 F 
ATOM      9  F   *** d   1     -11.657  15.878 -16.587  0.00  0.00    -0.192 F 
BRANCH   7  10
ATOM     10  C   *** d   1     -11.567  17.251 -18.432  0.00  0.00     0.396 C 
ATOM     11  F   *** d   1     -12.205  17.481 -19.590  0.00  0.00    -0.187 F 
ATOM     12  F   *** d   1     -10.433  16.606 -18.738  0.00  0.00    -0.187 F 
BRANCH  10  13
ATOM     13  C   *** d   1     -11.202  18.597 -17.748  0.00  0.00     0.222 C 
ATOM     14  O   *** d   1     -11.685  19.672 -18.041  0.00  0.00    -0.645 OA
BRANCH  13  15
ATOM     15  O   *** d   1     -10.280  18.416 -16.774  0.00  0.00    -0.772 OA
ATOM     16  H   *** d   1      -9.691  17.664 -16.946  0.00  0.00     0.167 HD
ENDBRANCH  13  15
ENDBRANCH  10  13
ENDBRANCH   7  10
ENDBRANCH   4   7
ENDBRANCH   3   4
BRANCH   3  17
ATOM     17  C   *** d   1     -16.003  16.634 -15.830  0.00  0.00     0.387 C 
ATOM     18  F   *** d   1     -16.638  17.273 -16.794  0.00  0.00    -0.192 F 
ATOM     19  F   *** d   1     -15.670  17.577 -14.967  0.00  0.00    -0.192 F 
BRANCH  17  20
ATOM     20  C   *** d   1     -16.994  15.703 -15.150  0.00  0.00     0.409 C 
ATOM     21  F   *** d   1     -16.883  14.502 -15.694  0.00  0.00    -0.189 F 
ATOM     22  F   *** d   1     -18.219  16.109 -15.446  0.00  0.00    -0.189 F 
BRANCH  20  23
ATOM     23  C   *** d   1     -16.887  15.560 -13.652  0.00  0.00     0.461 C 
ATOM     24  F   *** d   1     -17.228  14.361 -13.267  0.00  0.00    -0.165 F 
ATOM     25  F   *** d   1     -17.651  16.409 -13.016  0.00  0.00    -0.165 F 
ATOM     26  F   *** d   1     -15.662  15.754 -13.247  0.00  0.00    -0.165 F 
ENDBRANCH  20  23
ENDBRANCH  17  20
ENDBRANCH   3  17
TORSDOF 8
ENDMDL
MODEL 7
REMARK VINA RESULT:      -7.1     12.736     14.882
REMARK  8 active torsions:
REMARK  status: ('A' for Active; 'I' for Inactive)
REMARK    1  A    between atoms: O_16  and  C_25 
REMARK    2  A    between atoms: C_18  and  C_19 
REMARK    3  A    between atoms: C_18  and  C_20 
REMARK    4  A    between atoms: C_19  and  C_21 
REMARK    5  A    between atoms: C_20  and  C_22 
REMARK    6  A    between atoms: C_21  and  C_23 
REMARK    7  A    between atoms: C_22  and  C_24 
REMARK    8  A    between atoms: C_23  and  C_25 
ROOT
ATOM      1  F   *** d   1     -15.736  17.651 -14.950  0.00  0.00    -0.192 F 
ATOM      2  F   *** d   1     -14.722  15.849 -14.625  0.00  0.00    -0.192 F 
ATOM      3  C   *** d   1     -15.599  16.427 -15.425  0.00  0.00     0.384 C 
ENDROOT
BRANCH   3   4
ATOM      4  C   *** d   1     -16.930  15.707 -15.277  0.00  0.00     0.385 C 
ATOM      5  F   *** d   1     -16.826  14.507 -15.818  0.00  0.00    -0.192 F 
ATOM      6  F   *** d   1     -17.829  16.332 -16.016  0.00  0.00    -0.192 F 
BRANCH   4   7
ATOM      7  C   *** d   1     -17.498  15.554 -13.879  0.00  0.00     0.388 C 
ATOM      8  F   *** d   1     -18.071  16.687 -13.511  0.00  0.00    -0.192 F 
ATOM      9  F   *** d   1     -16.508  15.389 -13.020  0.00  0.00    -0.192 F 
BRANCH   7  10
ATOM     10  C   *** d   1     -18.523  14.466 -13.641  0.00  0.00     0.396 C 
ATOM     11  F   *** d   1     -17.929  13.264 -13.700  0.00  0.00    -0.187 F 
ATOM     12  F   *** d   1     -19.437  14.493 -14.621  0.00  0.00    -0.187 F 
BRANCH  10  13
ATOM     13  C   *** d   1     -19.250  14.636 -12.279  0.00  0.00     0.222 C 
ATOM     14  O   *** d   1     -18.748  14.409 -11.197  0.00  0.00    -0.645 OA
BRANCH  13  15
ATOM     15  O   *** d   1     -20.517  15.076 -12.454  0.00  0.00    -0.772 OA
ATOM     16  H   *** d   1     -21.183  14.395 -12.273  0.00  0.00     0.167 HD
ENDBRANCH  13  15
ENDBRANCH  10  13
ENDBRANCH   7  10
ENDBRANCH   4   7
ENDBRANCH   3   4
BRANCH   3  17
ATOM     17  C   *** d   1     -14.995  16.516 -16.817  0.00  0.00     0.387 C 
ATOM     18  F   *** d   1     -15.705  17.369 -17.531  0.00  0.00    -0.192 F 
ATOM     19  F   *** d   1     -15.157  15.355 -17.425  0.00  0.00    -0.192 F 
BRANCH  17  20
ATOM     20  C   *** d   1     -13.530  16.909 -16.936  0.00  0.00     0.409 C 
ATOM     21  F   *** d   1     -13.212  17.661 -15.895  0.00  0.00    -0.189 F 
ATOM     22  F   *** d   1     -13.393  17.696 -17.991  0.00  0.00    -0.189 F 
BRANCH  20  23
ATOM     23  C   *** d   1     -12.525  15.789 -17.041  0.00  0.00     0.461 C 
ATOM     24  F   *** d   1     -11.346  16.175 -16.640  0.00  0.00    -0.165 F 
ATOM     25  F   *** d   1     -12.399  15.347 -18.265  0.00  0.00    -0.165 F 
ATOM     26  F   *** d   1     -12.867  14.777 -16.292  0.00  0.00    -0.165 F 
ENDBRANCH  20  23
ENDBRANCH  17  20
ENDBRANCH   3  17
TORSDOF 8
ENDMDL
MODEL 8
REMARK VINA RESULT:      -7.1     14.073     15.583
REMARK  8 active torsions:
REMARK  status: ('A' for Active; 'I' for Inactive)
REMARK    1  A    between atoms: O_16  and  C_25 
REMARK    2  A    between atoms: C_18  and  C_19 
REMARK    3  A    between atoms: C_18  and  C_20 
REMARK    4  A    between atoms: C_19  and  C_21 
REMARK    5  A    between atoms: C_20  and  C_22 
REMARK    6  A    between atoms: C_21  and  C_23 
REMARK    7  A    between atoms: C_22  and  C_24 
REMARK    8  A    between atoms: C_23  and  C_25 
ROOT
ATOM      1  F   *** d   1      -6.503  -0.223  -3.240  0.00  0.00    -0.192 F 
ATOM      2  F   *** d   1      -7.699   1.460  -2.898  0.00  0.00    -0.192 F 
ATOM      3  C   *** d   1      -6.518   1.092  -3.361  0.00  0.00     0.384 C 
ENDROOT
BRANCH   3   4
ATOM      4  C   *** d   1      -5.445   1.665  -2.450  0.00  0.00     0.385 C 
ATOM      5  F   *** d   1      -5.275   2.940  -2.746  0.00  0.00    -0.192 F 
ATOM      6  F   *** d   1      -4.292   1.094  -2.749  0.00  0.00    -0.192 F 
BRANCH   4   7
ATOM      7  C   *** d   1      -5.652   1.546  -0.952  0.00  0.00     0.388 C 
ATOM      8  F   *** d   1      -6.926   1.288  -0.705  0.00  0.00    -0.192 F 
ATOM      9  F   *** d   1      -5.435   2.718  -0.385  0.00  0.00    -0.192 F 
BRANCH   7  10
ATOM     10  C   *** d   1      -4.857   0.498  -0.204  0.00  0.00     0.396 C 
ATOM     11  F   *** d   1      -3.650   0.989   0.117  0.00  0.00    -0.187 F 
ATOM     12  F   *** d   1      -4.643  -0.556  -1.004  0.00  0.00    -0.187 F 
BRANCH  10  13
ATOM     13  C   *** d   1      -5.591   0.009   1.074  0.00  0.00     0.222 C 
ATOM     14  O   *** d   1      -5.751  -1.157   1.373  0.00  0.00    -0.645 OA
BRANCH  13  15
ATOM     15  O   *** d   1      -6.024   1.052   1.818  0.00  0.00    -0.772 OA
ATOM     16  H   *** d   1      -6.054   1.885   1.321  0.00  0.00     0.167 HD
ENDBRANCH  13  15
ENDBRANCH  10  13
ENDBRANCH   7  10
ENDBRANCH   4   7
ENDBRANCH   3   4
BRANCH   3  17
ATOM     17  C   *** d   1      -6.451   1.440  -4.839  0.00  0.00     0.387 C 
ATOM     18  F   *** d   1      -5.211   1.266  -5.257  0.00  0.00    -0.192 F 
ATOM     19  F   *** d   1      -6.674   2.733  -4.981  0.00  0.00    -0.192 F 
BRANCH  17  20
ATOM     20  C   *** d   1      -7.375   0.695  -5.790  0.00  0.00     0.409 C 
ATOM     21  F   *** d   1      -7.847   1.557  -6.677  0.00  0.00    -0.189 F 
ATOM     22  F   *** d   1      -8.431   0.282  -5.108  0.00  0.00    -0.189 F 
BRANCH  20  23
ATOM     23  C   *** d   1      -6.795  -0.483  -6.532  0.00  0.00     0.461 C 
ATOM     24  F   *** d   1      -6.076  -0.093  -7.548  0.00  0.00    -0.165 F 
ATOM     25  F   *** d   1      -7.719  -1.287  -6.988  0.00  0.00    -0.165 F 
ATOM     26  F   *** d   1      -6.011  -1.185  -5.761  0.00  0.00    -0.165 F 
ENDBRANCH  20  23
ENDBRANCH  17  20
ENDBRANCH   3  17
TORSDOF 8
ENDMDL
MODEL 9
REMARK VINA RESULT:      -7.1     13.383     15.678
REMARK  8 active torsions:
REMARK  status: ('A' for Active; 'I' for Inactive)
REMARK    1  A    between atoms: O_16  and  C_25 
REMARK    2  A    between atoms: C_18  and  C_19 
REMARK    3  A    between atoms: C_18  and  C_20 
REMARK    4  A    between atoms: C_19  and  C_21 
REMARK    5  A    between atoms: C_20  and  C_22 
REMARK    6  A    between atoms: C_21  and  C_23 
REMARK    7  A    between atoms: C_22  and  C_24 
REMARK    8  A    between atoms: C_23  and  C_25 
ROOT
ATOM      1  F   *** d   1     -14.667  18.132 -17.149  0.00  0.00    -0.192 F 
ATOM      2  F   *** d   1     -13.171  18.104 -15.686  0.00  0.00    -0.192 F 
ATOM      3  C   *** d   1     -14.169  17.392 -16.176  0.00  0.00     0.384 C 
ENDROOT
BRANCH   3   4
ATOM      4  C   *** d   1     -15.231  17.249 -15.097  0.00  0.00     0.385 C 
ATOM      5  F   *** d   1     -14.997  18.139 -14.151  0.00  0.00    -0.192 F 
ATOM      6  F   *** d   1     -15.073  16.079 -14.505  0.00  0.00    -0.192 F 
BRANCH   4   7
ATOM      7  C   *** d   1     -16.684  17.369 -15.517  0.00  0.00     0.388 C 
ATOM      8  F   *** d   1     -16.830  16.880 -16.737  0.00  0.00    -0.192 F 
ATOM      9  F   *** d   1     -17.003  18.646 -15.631  0.00  0.00    -0.192 F 
BRANCH   7  10
ATOM     10  C   *** d   1     -17.732  16.689 -14.662  0.00  0.00     0.396 C 
ATOM     11  F   *** d   1     -18.906  17.326 -14.793  0.00  0.00    -0.187 F 
ATOM     12  F   *** d   1     -17.384  16.785 -13.371  0.00  0.00    -0.187 F 
BRANCH  10  13
ATOM     13  C   *** d   1     -17.896  15.188 -15.022  0.00  0.00     0.222 C 
ATOM     14  O   *** d   1     -17.511  14.267 -14.329  0.00  0.00    -0.645 OA
BRANCH  13  15
ATOM     15  O   *** d   1     -18.530  15.035 -16.207  0.00  0.00    -0.772 OA
ATOM     16  H   *** d   1     -17.922  15.028 -16.963  0.00  0.00     0.167 HD
ENDBRANCH  13  15
ENDBRANCH  10  13
ENDBRANCH   7  10
ENDBRANCH   4   7
ENDBRANCH   3   4
BRANCH   3  17
ATOM     17  C   *** d   1     -13.601  16.118 -16.781  0.00  0.00     0.387 C 
ATOM     18  F   *** d   1     -14.601  15.381 -17.226  0.00  0.00    -0.192 F 
ATOM     19  F   *** d   1     -13.056  15.398 -15.818  0.00  0.00    -0.192 F 
BRANCH  17  20
ATOM     20  C   *** d   1     -12.582  16.254 -17.902  0.00  0.00     0.409 C 
ATOM     21  F   *** d   1     -12.791  17.405 -18.521  0.00  0.00    -0.189 F 
ATOM     22  F   *** d   1     -12.829  15.321 -18.807  0.00  0.00    -0.189 F 
BRANCH  20  23
ATOM     23  C   *** d   1     -11.125  16.175 -17.520  0.00  0.00     0.461 C 
ATOM     24  F   *** d   1     -10.818  14.988 -17.078  0.00  0.00    -0.165 F 
ATOM     25  F   *** d   1     -10.809  17.036 -16.588  0.00  0.00    -0.165 F 
ATOM     26  F   *** d   1     -10.355  16.408 -18.547  0.00  0.00    -0.165 F 
ENDBRANCH  20  23
ENDBRANCH  17  20
ENDBRANCH   3  17
TORSDOF 8
ENDMDL
MODEL 10
REMARK VINA RESULT:      -7.0     13.792     16.150
REMARK  8 active torsions:
REMARK  status: ('A' for Active; 'I' for Inactive)
REMARK    1  A    between atoms: O_16  and  C_25 
REMARK    2  A    between atoms: C_18  and  C_19 
REMARK    3  A    between atoms: C_18  and  C_20 
REMARK    4  A    between atoms: C_19  and  C_21 
REMARK    5  A    between atoms: C_20  and  C_22 
REMARK    6  A    between atoms: C_21  and  C_23 
REMARK    7  A    between atoms: C_22  and  C_24 
REMARK    8  A    between atoms: C_23  and  C_25 
ROOT
ATOM      1  F   *** d   1     -13.107  19.404 -16.994  0.00  0.00    -0.192 F 
ATOM      2  F   *** d   1     -12.558  17.684 -15.935  0.00  0.00    -0.192 F 
ATOM      3  C   *** d   1     -13.101  18.085 -17.070  0.00  0.00     0.384 C 
ENDROOT
BRANCH   3   4
ATOM      4  C   *** d   1     -14.543  17.605 -17.108  0.00  0.00     0.385 C 
ATOM      5  F   *** d   1     -14.566  16.367 -17.565  0.00  0.00    -0.192 F 
ATOM      6  F   *** d   1     -15.197  18.311 -18.013  0.00  0.00    -0.192 F 
BRANCH   4   7
ATOM      7  C   *** d   1     -15.337  17.652 -15.815  0.00  0.00     0.388 C 
ATOM      8  F   *** d   1     -16.599  17.941 -16.085  0.00  0.00    -0.192 F 
ATOM      9  F   *** d   1     -14.915  18.664 -15.079  0.00  0.00    -0.192 F 
BRANCH   7  10
ATOM     10  C   *** d   1     -15.363  16.411 -14.950  0.00  0.00     0.396 C 
ATOM     11  F   *** d   1     -15.134  16.745 -13.671  0.00  0.00    -0.187 F 
ATOM     12  F   *** d   1     -14.369  15.590 -15.318  0.00  0.00    -0.187 F 
BRANCH  10  13
ATOM     13  C   *** d   1     -16.708  15.644 -15.068  0.00  0.00     0.222 C 
ATOM     14  O   *** d   1     -17.008  14.917 -15.993  0.00  0.00    -0.645 OA
BRANCH  13  15
ATOM     15  O   *** d   1     -17.504  15.886 -14.001  0.00  0.00    -0.772 OA
ATOM     16  H   *** d   1     -17.912  15.082 -13.643  0.00  0.00     0.167 HD
ENDBRANCH  13  15
ENDBRANCH  10  13
ENDBRANCH   7  10
ENDBRANCH   4   7
ENDBRANCH   3   4
BRANCH   3  17
ATOM     17  C   *** d   1     -12.189  17.673 -18.214  0.00  0.00     0.387 C 
ATOM     18  F   *** d   1     -11.619  18.755 -18.710  0.00  0.00    -0.192 F 
ATOM     19  F   *** d   1     -12.931  17.204 -19.200  0.00  0.00    -0.192 F 
BRANCH  17  20
ATOM     20  C   *** d   1     -11.096  16.656 -17.923  0.00  0.00     0.409 C 
ATOM     21  F   *** d   1     -10.382  17.090 -16.896  0.00  0.00    -0.189 F 
ATOM     22  F   *** d   1     -10.259  16.639 -18.948  0.00  0.00    -0.189 F 
BRANCH  20  23
ATOM     23  C   *** d   1     -11.531  15.241 -17.638  0.00  0.00     0.461 C 
ATOM     24  F   *** d   1     -10.645  14.381 -18.055  0.00  0.00    -0.165 F 
ATOM     25  F   *** d   1     -12.668  14.946 -18.213  0.00  0.00    -0.165 F 
ATOM     26  F   *** d   1     -11.677  15.042 -16.356  0.00  0.00    -0.165 F 
ENDBRANCH  20  23
ENDBRANCH  17  20
ENDBRANCH   3  17
TORSDOF 8
ENDMDL
MODEL 11
REMARK VINA RESULT:      -7.0     13.387     14.821
REMARK  8 active torsions:
REMARK  status: ('A' for Active; 'I' for Inactive)
REMARK    1  A    between atoms: O_16  and  C_25 
REMARK    2  A    between atoms: C_18  and  C_19 
REMARK    3  A    between atoms: C_18  and  C_20 
REMARK    4  A    between atoms: C_19  and  C_21 
REMARK    5  A    between atoms: C_20  and  C_22 
REMARK    6  A    between atoms: C_21  and  C_23 
REMARK    7  A    between atoms: C_22  and  C_24 
REMARK    8  A    between atoms: C_23  and  C_25 
ROOT
ATOM      1  F   *** d   1      -6.658  -0.511  -3.521  0.00  0.00    -0.192 F 
ATOM      2  F   *** d   1      -7.631   1.115  -2.632  0.00  0.00    -0.192 F 
ATOM      3  C   *** d   1      -6.527   0.779  -3.273  0.00  0.00     0.384 C 
ENDROOT
BRANCH   3   4
ATOM      4  C   *** d   1      -5.349   0.964  -2.328  0.00  0.00     0.385 C 
ATOM      5  F   *** d   1      -4.295   1.334  -3.032  0.00  0.00    -0.192 F 
ATOM      6  F   *** d   1      -5.023  -0.215  -1.829  0.00  0.00    -0.192 F 
BRANCH   4   7
ATOM      7  C   *** d   1      -5.516   1.933  -1.173  0.00  0.00     0.388 C 
ATOM      8  F   *** d   1      -6.252   1.368  -0.230  0.00  0.00    -0.192 F 
ATOM      9  F   *** d   1      -6.228   2.971  -1.571  0.00  0.00    -0.192 F 
BRANCH   7  10
ATOM     10  C   *** d   1      -4.269   2.444  -0.485  0.00  0.00     0.396 C 
ATOM     11  F   *** d   1      -3.404   2.907  -1.402  0.00  0.00    -0.187 F 
ATOM     12  F   *** d   1      -3.658   1.430   0.143  0.00  0.00    -0.187 F 
BRANCH  10  13
ATOM     13  C   *** d   1      -4.587   3.552   0.555  0.00  0.00     0.222 C 
ATOM     14  O   *** d   1      -5.209   3.374   1.583  0.00  0.00    -0.645 OA
BRANCH  13  15
ATOM     15  O   *** d   1      -4.074   4.744   0.172  0.00  0.00    -0.772 OA
ATOM     16  H   *** d   1      -3.847   4.773  -0.771  0.00  0.00     0.167 HD
ENDBRANCH  13  15
ENDBRANCH  10  13
ENDBRANCH   7  10
ENDBRANCH   4   7
ENDBRANCH   3   4
BRANCH   3  17
ATOM     17  C   *** d   1      -6.493   1.524  -4.597  0.00  0.00     0.387 C 
ATOM     18  F   *** d   1      -5.653   0.906  -5.407  0.00  0.00    -0.192 F 
ATOM     19  F   *** d   1      -5.955   2.714  -4.402  0.00  0.00    -0.192 F 
BRANCH  17  20
ATOM     20  C   *** d   1      -7.806   1.717  -5.340  0.00  0.00     0.409 C 
ATOM     21  F   *** d   1      -7.787   2.905  -5.923  0.00  0.00    -0.189 F 
ATOM     22  F   *** d   1      -8.784   1.780  -4.450  0.00  0.00    -0.189 F 
BRANCH  20  23
ATOM     23  C   *** d   1      -8.169   0.683  -6.376  0.00  0.00     0.461 C 
ATOM     24  F   *** d   1      -7.985  -0.525  -5.920  0.00  0.00    -0.165 F 
ATOM     25  F   *** d   1      -7.460   0.803  -7.468  0.00  0.00    -0.165 F 
ATOM     26  F   *** d   1      -9.426   0.773  -6.712  0.00  0.00    -0.165 F 
ENDBRANCH  20  23
ENDBRANCH  17  20
ENDBRANCH   3  17
TORSDOF 8
ENDMDL
MODEL 12
REMARK VINA RESULT:      -7.0     12.948     14.244
REMARK  8 active torsions:
REMARK  status: ('A' for Active; 'I' for Inactive)
REMARK    1  A    between atoms: O_16  and  C_25 
REMARK    2  A    between atoms: C_18  and  C_19 
REMARK    3  A    between atoms: C_18  and  C_20 
REMARK    4  A    between atoms: C_19  and  C_21 
REMARK    5  A    between atoms: C_20  and  C_22 
REMARK    6  A    between atoms: C_21  and  C_23 
REMARK    7  A    between atoms: C_22  and  C_24 
REMARK    8  A    between atoms: C_23  and  C_25 
ROOT
ATOM      1  F   *** d   1     -15.907  18.087 -14.790  0.00  0.00    -0.192 F 
ATOM      2  F   *** d   1     -17.518  17.548 -16.013  0.00  0.00    -0.192 F 
ATOM      3  C   *** d   1     -16.390  17.088 -15.506  0.00  0.00     0.384 C 
ENDROOT
BRANCH   3   4
ATOM      4  C   *** d   1     -15.426  16.815 -16.650  0.00  0.00     0.385 C 
ATOM      5  F   *** d   1     -15.560  17.768 -17.553  0.00  0.00    -0.192 F 
ATOM      6  F   *** d   1     -15.807  15.711 -17.266  0.00  0.00    -0.192 F 
BRANCH   4   7
ATOM      7  C   *** d   1     -13.952  16.679 -16.314  0.00  0.00     0.388 C 
ATOM      8  F   *** d   1     -13.779  15.640 -15.514  0.00  0.00    -0.192 F 
ATOM      9  F   *** d   1     -13.569  17.718 -15.596  0.00  0.00    -0.192 F 
BRANCH   7  10
ATOM     10  C   *** d   1     -12.975  16.500 -17.455  0.00  0.00     0.396 C 
ATOM     11  F   *** d   1     -13.170  17.460 -18.373  0.00  0.00    -0.187 F 
ATOM     12  F   *** d   1     -13.210  15.330 -18.065  0.00  0.00    -0.187 F 
BRANCH  10  13
ATOM     13  C   *** d   1     -11.500  16.518 -16.970  0.00  0.00     0.222 C 
ATOM     14  O   *** d   1     -10.813  17.517 -16.888  0.00  0.00    -0.645 OA
BRANCH  13  15
ATOM     15  O   *** d   1     -11.078  15.275 -16.642  0.00  0.00    -0.772 OA
ATOM     16  H   *** d   1     -10.540  14.863 -17.337  0.00  0.00     0.167 HD
ENDBRANCH  13  15
ENDBRANCH  10  13
ENDBRANCH   7  10
ENDBRANCH   4   7
ENDBRANCH   3   4
BRANCH   3  17
ATOM     17  C   *** d   1     -16.716  15.937 -14.568  0.00  0.00     0.387 C 
ATOM     18  F   *** d   1     -15.766  15.854 -13.656  0.00  0.00    -0.192 F 
ATOM     19  F   *** d   1     -16.634  14.805 -15.242  0.00  0.00    -0.192 F 
BRANCH  17  20
ATOM     20  C   *** d   1     -18.057  15.961 -13.850  0.00  0.00     0.409 C 
ATOM     21  F   *** d   1     -19.008  15.684 -14.727  0.00  0.00    -0.189 F 
ATOM     22  F   *** d   1     -18.297  17.201 -13.455  0.00  0.00    -0.189 F 
BRANCH  20  23
ATOM     23  C   *** d   1     -18.218  15.042 -12.665  0.00  0.00     0.461 C 
ATOM     24  F   *** d   1     -17.398  14.031 -12.737  0.00  0.00    -0.165 F 
ATOM     25  F   *** d   1     -19.430  14.561 -12.571  0.00  0.00    -0.165 F 
ATOM     26  F   *** d   1     -17.955  15.664 -11.548  0.00  0.00    -0.165 F 
ENDBRANCH  20  23
ENDBRANCH  17  20
ENDBRANCH   3  17
TORSDOF 8
ENDMDL
MODEL 13
REMARK VINA RESULT:      -7.0     13.648     16.022
REMARK  8 active torsions:
REMARK  status: ('A' for Active; 'I' for Inactive)
REMARK    1  A    between atoms: O_16  and  C_25 
REMARK    2  A    between atoms: C_18  and  C_19 
REMARK    3  A    between atoms: C_18  and  C_20 
REMARK    4  A    between atoms: C_19  and  C_21 
REMARK    5  A    between atoms: C_20  and  C_22 
REMARK    6  A    between atoms: C_21  and  C_23 
REMARK    7  A    between atoms: C_22  and  C_24 
REMARK    8  A    between atoms: C_23  and  C_25 
ROOT
ATOM      1  F   *** d   1     -13.962  15.983 -15.425  0.00  0.00    -0.192 F 
ATOM      2  F   *** d   1     -14.948  16.555 -17.180  0.00  0.00    -0.192 F 
ATOM      3  C   *** d   1     -13.967  16.906 -16.369  0.00  0.00     0.384 C 
ENDROOT
BRANCH   3   4
ATOM      4  C   *** d   1     -14.326  18.238 -15.729  0.00  0.00     0.385 C 
ATOM      5  F   *** d   1     -14.481  19.138 -16.682  0.00  0.00    -0.192 F 
ATOM      6  F   *** d   1     -13.288  18.662 -15.031  0.00  0.00    -0.192 F 
BRANCH   4   7
ATOM      7  C   *** d   1     -15.546  18.281 -14.828  0.00  0.00     0.388 C 
ATOM      8  F   *** d   1     -15.453  19.319 -14.013  0.00  0.00    -0.192 F 
ATOM      9  F   *** d   1     -15.537  17.230 -14.028  0.00  0.00    -0.192 F 
BRANCH   7  10
ATOM     10  C   *** d   1     -16.909  18.375 -15.477  0.00  0.00     0.396 C 
ATOM     11  F   *** d   1     -16.770  18.484 -16.808  0.00  0.00    -0.187 F 
ATOM     12  F   *** d   1     -17.525  19.491 -15.062  0.00  0.00    -0.187 F 
BRANCH  10  13
ATOM     13  C   *** d   1     -17.807  17.156 -15.132  0.00  0.00     0.222 C 
ATOM     14  O   *** d   1     -18.491  17.065 -14.133  0.00  0.00    -0.645 OA
BRANCH  13  15
ATOM     15  O   *** d   1     -17.734  16.208 -16.094  0.00  0.00    -0.772 OA
ATOM     16  H   *** d   1     -18.374  15.489 -15.966  0.00  0.00     0.167 HD
ENDBRANCH  13  15
ENDBRANCH  10  13
ENDBRANCH   7  10
ENDBRANCH   4   7
ENDBRANCH   3   4
BRANCH   3  17
ATOM     17  C   *** d   1     -12.656  16.820 -17.133  0.00  0.00     0.387 C 
ATOM     18  F   *** d   1     -11.766  17.588 -16.532  0.00  0.00    -0.192 F 
ATOM     19  F   *** d   1     -12.821  17.369 -18.323  0.00  0.00    -0.192 F 
BRANCH  17  20
ATOM     20  C   *** d   1     -12.034  15.446 -17.331  0.00  0.00     0.409 C 
ATOM     21  F   *** d   1     -13.002  14.580 -17.581  0.00  0.00    -0.189 F 
ATOM     22  F   *** d   1     -11.505  15.058 -16.182  0.00  0.00    -0.189 F 
BRANCH  20  23
ATOM     23  C   *** d   1     -10.986  15.315 -18.408  0.00  0.00     0.461 C 
ATOM     24  F   *** d   1     -10.123  16.290 -18.347  0.00  0.00    -0.165 F 
ATOM     25  F   *** d   1     -11.504  15.321 -19.608  0.00  0.00    -0.165 F 
ATOM     26  F   *** d   1     -10.313  14.205 -18.277  0.00  0.00    -0.165 F 
ENDBRANCH  20  23
ENDBRANCH  17  20
ENDBRANCH   3  17
TORSDOF 8
ENDMDL
MODEL 14
REMARK VINA RESULT:      -6.9     12.336     14.357
REMARK  8 active torsions:
REMARK  status: ('A' for Active; 'I' for Inactive)
REMARK    1  A    between atoms: O_16  and  C_25 
REMARK    2  A    between atoms: C_18  and  C_19 
REMARK    3  A    between atoms: C_18  and  C_20 
REMARK    4  A    between atoms: C_19  and  C_21 
REMARK    5  A    between atoms: C_20  and  C_22 
REMARK    6  A    between atoms: C_21  and  C_23 
REMARK    7  A    between atoms: C_22  and  C_24 
REMARK    8  A    between atoms: C_23  and  C_25 
ROOT
ATOM      1  F   *** d   1     -17.020  14.481 -15.374  0.00  0.00    -0.192 F 
ATOM      2  F   *** d   1     -17.765  16.294 -16.110  0.00  0.00    -0.192 F 
ATOM      3  C   *** d   1     -16.995  15.785 -15.166  0.00  0.00     0.384 C 
ENDROOT
BRANCH   3   4
ATOM      4  C   *** d   1     -17.640  16.063 -13.818  0.00  0.00     0.385 C 
ATOM      5  F   *** d   1     -18.050  17.318 -13.795  0.00  0.00    -0.192 F 
ATOM      6  F   *** d   1     -16.707  15.997 -12.884  0.00  0.00    -0.192 F 
BRANCH   4   7
ATOM      7  C   *** d   1     -18.794  15.175 -13.391  0.00  0.00     0.388 C 
ATOM      8  F   *** d   1     -19.431  14.738 -14.464  0.00  0.00    -0.192 F 
ATOM      9  F   *** d   1     -19.688  15.900 -12.745  0.00  0.00    -0.192 F 
BRANCH   7  10
ATOM     10  C   *** d   1     -18.480  13.951 -12.558  0.00  0.00     0.396 C 
ATOM     11  F   *** d   1     -18.533  14.264 -11.255  0.00  0.00    -0.187 F 
ATOM     12  F   *** d   1     -17.225  13.551 -12.808  0.00  0.00    -0.187 F 
BRANCH  10  13
ATOM     13  C   *** d   1     -19.445  12.773 -12.864  0.00  0.00     0.222 C 
ATOM     14  O   *** d   1     -20.573  12.675 -12.425  0.00  0.00    -0.645 OA
BRANCH  13  15
ATOM     15  O   *** d   1     -18.868  11.871 -13.690  0.00  0.00    -0.772 OA
ATOM     16  H   *** d   1     -19.352  11.030 -13.730  0.00  0.00     0.167 HD
ENDBRANCH  13  15
ENDBRANCH  10  13
ENDBRANCH   7  10
ENDBRANCH   4   7
ENDBRANCH   3   4
BRANCH   3  17
ATOM     17  C   *** d   1     -15.574  16.280 -15.385  0.00  0.00     0.387 C 
ATOM     18  F   *** d   1     -14.787  15.709 -14.493  0.00  0.00    -0.192 F 
ATOM     19  F   *** d   1     -15.525  17.568 -15.098  0.00  0.00    -0.192 F 
BRANCH  17  20
ATOM     20  C   *** d   1     -14.953  16.079 -16.759  0.00  0.00     0.409 C 
ATOM     21  F   *** d   1     -15.407  17.023 -17.567  0.00  0.00    -0.189 F 
ATOM     22  F   *** d   1     -15.407  14.942 -17.260  0.00  0.00    -0.189 F 
BRANCH  20  23
ATOM     23  C   *** d   1     -13.447  16.068 -16.837  0.00  0.00     0.461 C 
ATOM     24  F   *** d   1     -12.957  14.964 -16.345  0.00  0.00    -0.165 F 
ATOM     25  F   *** d   1     -12.908  17.063 -16.182  0.00  0.00    -0.165 F 
ATOM     26  F   *** d   1     -13.038  16.146 -18.073  0.00  0.00    -0.165 F 
ENDBRANCH  20  23
ENDBRANCH  17  20
ENDBRANCH   3  17
TORSDOF 8
ENDMDL
MODEL 15
REMARK VINA RESULT:      -6.9     13.780     15.211
REMARK  8 active torsions:
REMARK  status: ('A' for Active; 'I' for Inactive)
REMARK    1  A    between atoms: O_16  and  C_25 
REMARK    2  A    between atoms: C_18  and  C_19 
REMARK    3  A    between atoms: C_18  and  C_20 
REMARK    4  A    between atoms: C_19  and  C_21 
REMARK    5  A    between atoms: C_20  and  C_22 
REMARK    6  A    between atoms: C_21  and  C_23 
REMARK    7  A    between atoms: C_22  and  C_24 
REMARK    8  A    between atoms: C_23  and  C_25 
ROOT
ATOM      1  F   *** d   1     -16.261  18.389 -15.572  0.00  0.00    -0.192 F 
ATOM      2  F   *** d   1     -15.992  18.098 -17.627  0.00  0.00    -0.192 F 
ATOM      3  C   *** d   1     -15.473  17.797 -16.451  0.00  0.00     0.384 C 
ENDROOT
BRANCH   3   4
ATOM      4  C   *** d   1     -14.095  18.432 -16.357  0.00  0.00     0.385 C 
ATOM      5  F   *** d   1     -13.450  17.895 -15.338  0.00  0.00    -0.192 F 
ATOM      6  F   *** d   1     -14.240  19.704 -16.031  0.00  0.00    -0.192 F 
BRANCH   4   7
ATOM      7  C   *** d   1     -13.200  18.361 -17.580  0.00  0.00     0.388 C 
ATOM      8  F   *** d   1     -13.471  19.378 -18.381  0.00  0.00    -0.192 F 
ATOM      9  F   *** d   1     -13.510  17.290 -18.287  0.00  0.00    -0.192 F 
BRANCH   7  10
ATOM     10  C   *** d   1     -11.702  18.377 -17.369  0.00  0.00     0.396 C 
ATOM     11  F   *** d   1     -11.418  18.926 -16.177  0.00  0.00    -0.187 F 
ATOM     12  F   *** d   1     -11.129  19.156 -18.298  0.00  0.00    -0.187 F 
BRANCH  10  13
ATOM     13  C   *** d   1     -11.083  16.956 -17.464  0.00  0.00     0.222 C 
ATOM     14  O   *** d   1     -11.214  16.090 -16.622  0.00  0.00    -0.645 OA
BRANCH  13  15
ATOM     15  O   *** d   1     -10.382  16.804 -18.610  0.00  0.00    -0.772 OA
ATOM     16  H   *** d   1     -10.120  15.884 -18.775  0.00  0.00     0.167 HD
ENDBRANCH  13  15
ENDBRANCH  10  13
ENDBRANCH   7  10
ENDBRANCH   4   7
ENDBRANCH   3   4
BRANCH   3  17
ATOM     17  C   *** d   1     -15.573  16.293 -16.251  0.00  0.00     0.387 C 
ATOM     18  F   *** d   1     -14.446  15.863 -15.716  0.00  0.00    -0.192 F 
ATOM     19  F   *** d   1     -15.625  15.711 -17.435  0.00  0.00    -0.192 F 
BRANCH  17  20
ATOM     20  C   *** d   1     -16.725  15.760 -15.414  0.00  0.00     0.409 C 
ATOM     21  F   *** d   1     -16.884  14.476 -15.687  0.00  0.00    -0.189 F 
ATOM     22  F   *** d   1     -17.842  16.345 -15.819  0.00  0.00    -0.189 F 
BRANCH  20  23
ATOM     23  C   *** d   1     -16.619  15.920 -13.918  0.00  0.00     0.461 C 
ATOM     24  F   *** d   1     -16.781  14.779 -13.309  0.00  0.00    -0.165 F 
ATOM     25  F   *** d   1     -17.510  16.750 -13.442  0.00  0.00    -0.165 F 
ATOM     26  F   *** d   1     -15.443  16.369 -13.575  0.00  0.00    -0.165 F 
ENDBRANCH  20  23
ENDBRANCH  17  20
ENDBRANCH   3  17
TORSDOF 8
ENDMDL
MODEL 16
REMARK VINA RESULT:      -6.7     13.513     14.943
REMARK  8 active torsions:
REMARK  status: ('A' for Active; 'I' for Inactive)
REMARK    1  A    between atoms: O_16  and  C_25 
REMARK    2  A    between atoms: C_18  and  C_19 
REMARK    3  A    between atoms: C_18  and  C_20 
REMARK    4  A    between atoms: C_19  and  C_21 
REMARK    5  A    between atoms: C_20  and  C_22 
REMARK    6  A    between atoms: C_21  and  C_23 
REMARK    7  A    between atoms: C_22  and  C_24 
REMARK    8  A    between atoms: C_23  and  C_25 
ROOT
ATOM      1  F   *** d   1     -15.057  15.154 -17.329  0.00  0.00    -0.192 F 
ATOM      2  F   *** d   1     -14.185  15.747 -15.521  0.00  0.00    -0.192 F 
ATOM      3  C   *** d   1     -15.165  16.040 -16.356  0.00  0.00     0.384 C 
ENDROOT
BRANCH   3   4
ATOM      4  C   *** d   1     -14.903  17.420 -16.939  0.00  0.00     0.385 C 
ATOM      5  F   *** d   1     -15.137  18.325 -16.007  0.00  0.00    -0.192 F 
ATOM      6  F   *** d   1     -15.805  17.659 -17.874  0.00  0.00    -0.192 F 
BRANCH   4   7
ATOM      7  C   *** d   1     -13.532  17.687 -17.531  0.00  0.00     0.388 C 
ATOM      8  F   *** d   1     -13.653  18.496 -18.570  0.00  0.00    -0.192 F 
ATOM      9  F   *** d   1     -13.048  16.567 -18.037  0.00  0.00    -0.192 F 
BRANCH   7  10
ATOM     10  C   *** d   1     -12.477  18.302 -16.637  0.00  0.00     0.396 C 
ATOM     11  F   *** d   1     -11.430  17.469 -16.533  0.00  0.00    -0.187 F 
ATOM     12  F   *** d   1     -12.973  18.454 -15.401  0.00  0.00    -0.187 F 
BRANCH  10  13
ATOM     13  C   *** d   1     -12.006  19.688 -17.157  0.00  0.00     0.222 C 
ATOM     14  O   *** d   1     -12.583  20.735 -16.945  0.00  0.00    -0.645 OA
BRANCH  13  15
ATOM     15  O   *** d   1     -10.863  19.579 -17.871  0.00  0.00    -0.772 OA
ATOM     16  H   *** d   1     -10.808  18.751 -18.374  0.00  0.00     0.167 HD
ENDBRANCH  13  15
ENDBRANCH  10  13
ENDBRANCH   7  10
ENDBRANCH   4   7
ENDBRANCH   3   4
BRANCH   3  17
ATOM     17  C   *** d   1     -16.488  15.814 -15.643  0.00  0.00     0.387 C 
ATOM     18  F   *** d   1     -16.848  14.555 -15.812  0.00  0.00    -0.192 F 
ATOM     19  F   *** d   1     -17.425  16.514 -16.257  0.00  0.00    -0.192 F 
BRANCH  17  20
ATOM     20  C   *** d   1     -16.561  16.129 -14.157  0.00  0.00     0.409 C 
ATOM     21  F   *** d   1     -16.817  17.420 -14.014  0.00  0.00    -0.189 F 
ATOM     22  F   *** d   1     -15.359  15.950 -13.633  0.00  0.00    -0.189 F 
BRANCH  20  23
ATOM     23  C   *** d   1     -17.561  15.352 -13.338  0.00  0.00     0.461 C 
ATOM     24  F   *** d   1     -17.113  14.160 -13.056  0.00  0.00    -0.165 F 
ATOM     25  F   *** d   1     -18.704  15.207 -13.955  0.00  0.00    -0.165 F 
ATOM     26  F   *** d   1     -17.801  15.945 -12.201  0.00  0.00    -0.165 F 
ENDBRANCH  20  23
ENDBRANCH  17  20
ENDBRANCH   3  17
TORSDOF 8
ENDMDL
MODEL 17
REMARK VINA RESULT:      -6.7     11.560     13.450
REMARK  8 active torsions:
REMARK  status: ('A' for Active; 'I' for Inactive)
REMARK    1  A    between atoms: O_16  and  C_25 
REMARK    2  A    between atoms: C_18  and  C_19 
REMARK    3  A    between atoms: C_18  and  C_20 
REMARK    4  A    between atoms: C_19  and  C_21 
REMARK    5  A    between atoms: C_20  and  C_22 
REMARK    6  A    between atoms: C_21  and  C_23 
REMARK    7  A    between atoms: C_22  and  C_24 
REMARK    8  A    between atoms: C_23  and  C_25 
ROOT
ATOM      1  F   *** d   1     -18.037  16.312 -12.980  0.00  0.00    -0.192 F 
ATOM      2  F   *** d   1     -16.598  14.794 -12.891  0.00  0.00    -0.192 F 
ATOM      3  C   *** d   1     -17.610  15.236 -13.615  0.00  0.00     0.384 C 
ENDROOT
BRANCH   3   4
ATOM      4  C   *** d   1     -18.717  14.193 -13.580  0.00  0.00     0.385 C 
ATOM      5  F   *** d   1     -18.192  13.009 -13.835  0.00  0.00    -0.192 F 
ATOM      6  F   *** d   1     -19.540  14.421 -14.587  0.00  0.00    -0.192 F 
BRANCH   4   7
ATOM      7  C   *** d   1     -19.545  14.086 -12.313  0.00  0.00     0.388 C 
ATOM      8  F   *** d   1     -20.437  13.120 -12.452  0.00  0.00    -0.192 F 
ATOM      9  F   *** d   1     -20.264  15.184 -12.166  0.00  0.00    -0.192 F 
BRANCH   7  10
ATOM     10  C   *** d   1     -18.824  13.811 -11.011  0.00  0.00     0.396 C 
ATOM     11  F   *** d   1     -18.376  14.963 -10.489  0.00  0.00    -0.187 F 
ATOM     12  F   *** d   1     -17.745  13.052 -11.251  0.00  0.00    -0.187 F 
BRANCH  10  13
ATOM     13  C   *** d   1     -19.729  13.075  -9.986  0.00  0.00     0.222 C 
ATOM     14  O   *** d   1     -20.707  13.563  -9.457  0.00  0.00    -0.645 OA
BRANCH  13  15
ATOM     15  O   *** d   1     -19.289  11.816  -9.761  0.00  0.00    -0.772 OA
ATOM     16  H   *** d   1     -18.437  11.631 -10.186  0.00  0.00     0.167 HD
ENDBRANCH  13  15
ENDBRANCH  10  13
ENDBRANCH   7  10
ENDBRANCH   4   7
ENDBRANCH   3   4
BRANCH   3  17
ATOM     17  C   *** d   1     -17.080  15.657 -14.976  0.00  0.00     0.387 C 
ATOM     18  F   *** d   1     -18.022  16.338 -15.602  0.00  0.00    -0.192 F 
ATOM     19  F   *** d   1     -16.901  14.577 -15.714  0.00  0.00    -0.192 F 
BRANCH  17  20
ATOM     20  C   *** d   1     -15.800  16.476 -15.020  0.00  0.00     0.409 C 
ATOM     21  F   *** d   1     -15.013  16.078 -14.034  0.00  0.00    -0.189 F 
ATOM     22  F   *** d   1     -16.099  17.735 -14.742  0.00  0.00    -0.189 F 
BRANCH  20  23
ATOM     23  C   *** d   1     -15.009  16.446 -16.304  0.00  0.00     0.461 C 
ATOM     24  F   *** d   1     -15.774  16.676 -17.335  0.00  0.00    -0.165 F 
ATOM     25  F   *** d   1     -14.421  15.295 -16.499  0.00  0.00    -0.165 F 
ATOM     26  F   *** d   1     -14.082  17.365 -16.308  0.00  0.00    -0.165 F 
ENDBRANCH  20  23
ENDBRANCH  17  20
ENDBRANCH   3  17
TORSDOF 8
ENDMDL
MODEL 18
REMARK VINA RESULT:      -6.6     10.515     11.915
REMARK  8 active torsions:
REMARK  status: ('A' for Active; 'I' for Inactive)
REMARK    1  A    between atoms: O_16  and  C_25 
REMARK    2  A    between atoms: C_18  and  C_19 
REMARK    3  A    between atoms: C_18  and  C_20 
REMARK    4  A    between atoms: C_19  and  C_21 
REMARK    5  A    between atoms: C_20  and  C_22 
REMARK    6  A    between atoms: C_21  and  C_23 
REMARK    7  A    between atoms: C_22  and  C_24 
REMARK    8  A    between atoms: C_23  and  C_25 
ROOT
ATOM      1  F   *** d   1     -16.620   2.469  -4.299  0.00  0.00    -0.192 F 
ATOM      2  F   *** d   1     -18.140   1.261  -3.515  0.00  0.00    -0.192 F 
ATOM      3  C   *** d   1     -17.227   2.150  -3.170  0.00  0.00     0.384 C 
ENDROOT
BRANCH   3   4
ATOM      4  C   *** d   1     -16.213   1.470  -2.263  0.00  0.00     0.385 C 
ATOM      5  F   *** d   1     -16.855   0.652  -1.449  0.00  0.00    -0.192 F 
ATOM      6  F   *** d   1     -15.680   2.383  -1.470  0.00  0.00    -0.192 F 
BRANCH   4   7
ATOM      7  C   *** d   1     -15.082   0.701  -2.919  0.00  0.00     0.388 C 
ATOM      8  F   *** d   1     -15.516   0.156  -4.043  0.00  0.00    -0.192 F 
ATOM      9  F   *** d   1     -14.750  -0.325  -2.158  0.00  0.00    -0.192 F 
BRANCH   7  10
ATOM     10  C   *** d   1     -13.821   1.458  -3.278  0.00  0.00     0.396 C 
ATOM     11  F   *** d   1     -12.957   1.410  -2.251  0.00  0.00    -0.187 F 
ATOM     12  F   *** d   1     -14.116   2.751  -3.472  0.00  0.00    -0.187 F 
BRANCH  10  13
ATOM     13  C   *** d   1     -13.152   0.903  -4.564  0.00  0.00     0.222 C 
ATOM     14  O   *** d   1     -13.295   1.375  -5.674  0.00  0.00    -0.645 OA
BRANCH  13  15
ATOM     15  O   *** d   1     -12.381  -0.174  -4.289  0.00  0.00    -0.772 OA
ATOM     16  H   *** d   1     -11.484  -0.100  -4.651  0.00  0.00     0.167 HD
ENDBRANCH  13  15
ENDBRANCH  10  13
ENDBRANCH   7  10
ENDBRANCH   4   7
ENDBRANCH   3   4
BRANCH   3  17
ATOM     17  C   *** d   1     -17.934   3.385  -2.638  0.00  0.00     0.387 C 
ATOM     18  F   *** d   1     -17.025   4.290  -2.326  0.00  0.00    -0.192 F 
ATOM     19  F   *** d   1     -18.512   3.082  -1.490  0.00  0.00    -0.192 F 
BRANCH  17  20
ATOM     20  C   *** d   1     -18.974   4.050  -3.527  0.00  0.00     0.409 C 
ATOM     21  F   *** d   1     -18.703   3.750  -4.786  0.00  0.00    -0.189 F 
ATOM     22  F   *** d   1     -18.821   5.362  -3.439  0.00  0.00    -0.189 F 
BRANCH  20  23
ATOM     23  C   *** d   1     -20.421   3.719  -3.258  0.00  0.00     0.461 C 
ATOM     24  F   *** d   1     -20.858   4.341  -2.199  0.00  0.00    -0.165 F 
ATOM     25  F   *** d   1     -20.610   2.439  -3.069  0.00  0.00    -0.165 F 
ATOM     26  F   *** d   1     -21.180   4.085  -4.253  0.00  0.00    -0.165 F 
ENDBRANCH  20  23
ENDBRANCH  17  20
ENDBRANCH   3  17
TORSDOF 8
ENDMDL
MODEL 19
REMARK VINA RESULT:      -6.6     12.803     14.592
REMARK  8 active torsions:
REMARK  status: ('A' for Active; 'I' for Inactive)
REMARK    1  A    between atoms: O_16  and  C_25 
REMARK    2  A    between atoms: C_18  and  C_19 
REMARK    3  A    between atoms: C_18  and  C_20 
REMARK    4  A    between atoms: C_19  and  C_21 
REMARK    5  A    between atoms: C_20  and  C_22 
REMARK    6  A    between atoms: C_21  and  C_23 
REMARK    7  A    between atoms: C_22  and  C_24 
REMARK    8  A    between atoms: C_23  and  C_25 
ROOT
ATOM      1  F   *** d   1     -15.203  16.126 -13.658  0.00  0.00    -0.192 F 
ATOM      2  F   *** d   1     -14.944  15.718 -15.695  0.00  0.00    -0.192 F 
ATOM      3  C   *** d   1     -15.747  16.331 -14.844  0.00  0.00     0.384 C 
ENDROOT
BRANCH   3   4
ATOM      4  C   *** d   1     -17.098  15.636 -14.873  0.00  0.00     0.385 C 
ATOM      5  F   *** d   1     -16.996  14.540 -15.601  0.00  0.00    -0.192 F 
ATOM      6  F   *** d   1     -17.950  16.400 -15.534  0.00  0.00    -0.192 F 
BRANCH   4   7
ATOM      7  C   *** d   1     -17.732  15.269 -13.544  0.00  0.00     0.388 C 
ATOM      8  F   *** d   1     -17.924  16.367 -12.832  0.00  0.00    -0.192 F 
ATOM      9  F   *** d   1     -16.877  14.557 -12.833  0.00  0.00    -0.192 F 
BRANCH   7  10
ATOM     10  C   *** d   1     -19.060  14.542 -13.564  0.00  0.00     0.396 C 
ATOM     11  F   *** d   1     -19.560  14.548 -14.809  0.00  0.00    -0.187 F 
ATOM     12  F   *** d   1     -19.939  15.198 -12.793  0.00  0.00    -0.187 F 
BRANCH  10  13
ATOM     13  C   *** d   1     -18.935  13.084 -13.045  0.00  0.00     0.222 C 
ATOM     14  O   *** d   1     -19.169  12.736 -11.905  0.00  0.00    -0.645 OA
BRANCH  13  15
ATOM     15  O   *** d   1     -18.538  12.247 -14.030  0.00  0.00    -0.772 OA
ATOM     16  H   *** d   1     -17.960  12.676 -14.681  0.00  0.00     0.167 HD
ENDBRANCH  13  15
ENDBRANCH  10  13
ENDBRANCH   7  10
ENDBRANCH   4   7
ENDBRANCH   3   4
BRANCH   3  17
ATOM     17  C   *** d   1     -15.713  17.822 -15.138  0.00  0.00     0.387 C 
ATOM     18  F   *** d   1     -14.737  18.368 -14.436  0.00  0.00    -0.192 F 
ATOM     19  F   *** d   1     -16.815  18.373 -14.663  0.00  0.00    -0.192 F 
BRANCH  17  20
ATOM     20  C   *** d   1     -15.553  18.260 -16.586  0.00  0.00     0.409 C 
ATOM     21  F   *** d   1     -16.349  19.295 -16.801  0.00  0.00    -0.189 F 
ATOM     22  F   *** d   1     -16.014  17.296 -17.366  0.00  0.00    -0.189 F 
BRANCH  20  23
ATOM     23  C   *** d   1     -14.163  18.623 -17.045  0.00  0.00     0.461 C 
ATOM     24  F   *** d   1     -14.085  18.637 -18.346  0.00  0.00    -0.165 F 
ATOM     25  F   *** d   1     -13.260  17.785 -16.605  0.00  0.00    -0.165 F 
ATOM     26  F   *** d   1     -13.826  19.814 -16.632  0.00  0.00    -0.165 F 
ENDBRANCH  20  23
ENDBRANCH  17  20
ENDBRANCH   3  17
TORSDOF 8
ENDMDL
MODEL 20
REMARK VINA RESULT:      -6.6     12.367     13.631
REMARK  8 active torsions:
REMARK  status: ('A' for Active; 'I' for Inactive)
REMARK    1  A    between atoms: O_16  and  C_25 
REMARK    2  A    between atoms: C_18  and  C_19 
REMARK    3  A    between atoms: C_18  and  C_20 
REMARK    4  A    between atoms: C_19  and  C_21 
REMARK    5  A    between atoms: C_20  and  C_22 
REMARK    6  A    between atoms: C_21  and  C_23 
REMARK    7  A    between atoms: C_22  and  C_24 
REMARK    8  A    between atoms: C_23  and  C_25 
ROOT
ATOM      1  F   *** d   1     -16.588  15.977 -12.932  0.00  0.00    -0.192 F 
ATOM      2  F   *** d   1     -18.501  16.755 -13.271  0.00  0.00    -0.192 F 
ATOM      3  C   *** d   1     -17.526  16.083 -13.855  0.00  0.00     0.384 C 
ENDROOT
BRANCH   3   4
ATOM      4  C   *** d   1     -16.978  16.926 -14.995  0.00  0.00     0.385 C 
ATOM      5  F   *** d   1     -17.229  18.197 -14.741  0.00  0.00    -0.192 F 
ATOM      6  F   *** d   1     -17.671  16.657 -16.087  0.00  0.00    -0.192 F 
BRANCH   4   7
ATOM      7  C   *** d   1     -15.504  16.787 -15.330  0.00  0.00     0.388 C 
ATOM      8  F   *** d   1     -14.978  15.817 -14.602  0.00  0.00    -0.192 F 
ATOM      9  F   *** d   1     -14.864  17.876 -14.945  0.00  0.00    -0.192 F 
BRANCH   7  10
ATOM     10  C   *** d   1     -15.124  16.492 -16.765  0.00  0.00     0.396 C 
ATOM     11  F   *** d   1     -15.507  17.508 -17.553  0.00  0.00    -0.187 F 
ATOM     12  F   *** d   1     -15.788  15.406 -17.187  0.00  0.00    -0.187 F 
BRANCH  10  13
ATOM     13  C   *** d   1     -13.601  16.236 -16.926  0.00  0.00     0.222 C 
ATOM     14  O   *** d   1     -12.747  17.096 -16.857  0.00  0.00    -0.645 OA
BRANCH  13  15
ATOM     15  O   *** d   1     -13.347  14.925 -17.146  0.00  0.00    -0.772 OA
ATOM     16  H   *** d   1     -13.982  14.513 -17.753  0.00  0.00     0.167 HD
ENDBRANCH  13  15
ENDBRANCH  10  13
ENDBRANCH   7  10
ENDBRANCH   4   7
ENDBRANCH   3   4
BRANCH   3  17
ATOM     17  C   *** d   1     -18.034  14.689 -14.187  0.00  0.00     0.387 C 
ATOM     18  F   *** d   1     -17.274  14.179 -15.138  0.00  0.00    -0.192 F 
ATOM     19  F   *** d   1     -19.230  14.794 -14.736  0.00  0.00    -0.192 F 
BRANCH  17  20
ATOM     20  C   *** d   1     -18.120  13.673 -13.059  0.00  0.00     0.409 C 
ATOM     21  F   *** d   1     -16.906  13.491 -12.565  0.00  0.00    -0.189 F 
ATOM     22  F   *** d   1     -18.467  12.505 -13.574  0.00  0.00    -0.189 F 
BRANCH  20  23
ATOM     23  C   *** d   1     -19.056  13.990 -11.920  0.00  0.00     0.461 C 
ATOM     24  F   *** d   1     -19.398  12.909 -11.275  0.00  0.00    -0.165 F 
ATOM     25  F   *** d   1     -20.155  14.569 -12.326  0.00  0.00    -0.165 F 
ATOM     26  F   *** d   1     -18.492  14.784 -11.053  0.00  0.00    -0.165 F 
ENDBRANCH  20  23
ENDBRANCH  17  20
ENDBRANCH   3  17
TORSDOF 8
ENDMDL
