MODEL 1
REMARK VINA RESULT:      -6.2      0.000      0.000
REMARK  8 active torsions:
REMARK  status: ('A' for Active; 'I' for Inactive)
REMARK    1  A    between atoms: O_16  and  C_25 
REMARK    2  A    between atoms: C_18  and  C_19 
REMARK    3  A    between atoms: C_18  and  C_20 
REMARK    4  A    between atoms: C_19  and  C_21 
REMARK    5  A    between atoms: C_20  and  C_22 
REMARK    6  A    between atoms: C_21  and  C_23 
REMARK    7  A    between atoms: C_22  and  C_24 
REMARK    8  A    between atoms: C_23  and  C_25 
ROOT
ATOM      1  F   *** d   1      -8.546  -3.361 -16.778  0.00  0.00    -0.192 F 
ATOM      2  F   *** d   1      -8.129  -1.397 -17.369  0.00  0.00    -0.192 F 
ATOM      3  C   *** d   1      -7.896  -2.273 -16.408  0.00  0.00     0.384 C 
ENDROOT
BRANCH   3   4
ATOM      4  C   *** d   1      -8.526  -1.756 -15.124  0.00  0.00     0.385 C 
ATOM      5  F   *** d   1      -9.459  -0.875 -15.435  0.00  0.00    -0.192 F 
ATOM      6  F   *** d   1      -7.618  -1.064 -14.460  0.00  0.00    -0.192 F 
BRANCH   4   7
ATOM      7  C   *** d   1      -9.127  -2.774 -14.174  0.00  0.00     0.388 C 
ATOM      8  F   *** d   1      -8.384  -3.868 -14.175  0.00  0.00    -0.192 F 
ATOM      9  F   *** d   1     -10.299  -3.169 -14.638  0.00  0.00    -0.192 F 
BRANCH   7  10
ATOM     10  C   *** d   1      -9.297  -2.381 -12.722  0.00  0.00     0.396 C 
ATOM     11  F   *** d   1      -8.093  -2.180 -12.164  0.00  0.00    -0.187 F 
ATOM     12  F   *** d   1      -9.868  -3.390 -12.051  0.00  0.00    -0.187 F 
BRANCH  10  13
ATOM     13  C   *** d   1     -10.179  -1.114 -12.559  0.00  0.00     0.222 C 
ATOM     14  O   *** d   1     -11.368  -1.066 -12.803  0.00  0.00    -0.645 OA
BRANCH  13  15
ATOM     15  O   *** d   1      -9.453  -0.068 -12.102  0.00  0.00    -0.772 OA
ATOM     16  H   *** d   1      -9.343   0.634 -12.763  0.00  0.00     0.167 HD
ENDBRANCH  13  15
ENDBRANCH  10  13
ENDBRANCH   7  10
ENDBRANCH   4   7
ENDBRANCH   3   4
BRANCH   3  17
ATOM     17  C   *** d   1      -6.408  -2.583 -16.390  0.00  0.00     0.387 C 
ATOM     18  F   *** d   1      -6.067  -2.940 -15.166  0.00  0.00    -0.192 F 
ATOM     19  F   *** d   1      -5.739  -1.467 -16.612  0.00  0.00    -0.192 F 
BRANCH  17  20
ATOM     20  C   *** d   1      -5.889  -3.642 -17.350  0.00  0.00     0.409 C 
ATOM     21  F   *** d   1      -6.446  -3.445 -18.534  0.00  0.00    -0.189 F 
ATOM     22  F   *** d   1      -6.331  -4.823 -16.948  0.00  0.00    -0.189 F 
BRANCH  20  23
ATOM     23  C   *** d   1      -4.395  -3.729 -17.534  0.00  0.00     0.461 C 
ATOM     24  F   *** d   1      -3.804  -2.642 -17.120  0.00  0.00    -0.165 F 
ATOM     25  F   *** d   1      -4.058  -3.908 -18.785  0.00  0.00    -0.165 F 
ATOM     26  F   *** d   1      -3.892  -4.718 -16.848  0.00  0.00    -0.165 F 
ENDBRANCH  20  23
ENDBRANCH  17  20
ENDBRANCH   3  17
TORSDOF 8
ENDMDL
MODEL 2
REMARK VINA RESULT:      -5.8      2.775      5.991
REMARK  8 active torsions:
REMARK  status: ('A' for Active; 'I' for Inactive)
REMARK    1  A    between atoms: O_16  and  C_25 
REMARK    2  A    between atoms: C_18  and  C_19 
REMARK    3  A    between atoms: C_18  and  C_20 
REMARK    4  A    between atoms: C_19  and  C_21 
REMARK    5  A    between atoms: C_20  and  C_22 
REMARK    6  A    between atoms: C_21  and  C_23 
REMARK    7  A    between atoms: C_22  and  C_24 
REMARK    8  A    between atoms: C_23  and  C_25 
ROOT
ATOM      1  F   *** d   1      -7.611  -0.807 -14.731  0.00  0.00    -0.192 F 
ATOM      2  F   *** d   1      -8.551  -1.330 -16.527  0.00  0.00    -0.192 F 
ATOM      3  C   *** d   1      -8.219  -1.808 -15.341  0.00  0.00     0.384 C 
ENDROOT
BRANCH   3   4
ATOM      4  C   *** d   1      -7.209  -2.927 -15.540  0.00  0.00     0.385 C 
ATOM      5  F   *** d   1      -7.453  -3.880 -14.659  0.00  0.00    -0.192 F 
ATOM      6  F   *** d   1      -6.010  -2.472 -15.220  0.00  0.00    -0.192 F 
BRANCH   4   7
ATOM      7  C   *** d   1      -7.118  -3.559 -16.916  0.00  0.00     0.388 C 
ATOM      8  F   *** d   1      -6.867  -2.622 -17.814  0.00  0.00    -0.192 F 
ATOM      9  F   *** d   1      -8.301  -4.037 -17.257  0.00  0.00    -0.192 F 
BRANCH   7  10
ATOM     10  C   *** d   1      -6.084  -4.642 -17.136  0.00  0.00     0.396 C 
ATOM     11  F   *** d   1      -6.638  -5.671 -17.795  0.00  0.00    -0.187 F 
ATOM     12  F   *** d   1      -5.678  -5.118 -15.950  0.00  0.00    -0.187 F 
BRANCH  10  13
ATOM     13  C   *** d   1      -4.844  -4.118 -17.910  0.00  0.00     0.222 C 
ATOM     14  O   *** d   1      -4.695  -4.204 -19.112  0.00  0.00    -0.645 OA
BRANCH  13  15
ATOM     15  O   *** d   1      -3.950  -3.545 -17.071  0.00  0.00    -0.772 OA
ATOM     16  H   *** d   1      -3.108  -3.332 -17.503  0.00  0.00     0.167 HD
ENDBRANCH  13  15
ENDBRANCH  10  13
ENDBRANCH   7  10
ENDBRANCH   4   7
ENDBRANCH   3   4
BRANCH   3  17
ATOM     17  C   *** d   1      -9.493  -2.134 -14.579  0.00  0.00     0.387 C 
ATOM     18  F   *** d   1      -9.874  -3.356 -14.898  0.00  0.00    -0.192 F 
ATOM     19  F   *** d   1     -10.463  -1.355 -15.022  0.00  0.00    -0.192 F 
BRANCH  17  20
ATOM     20  C   *** d   1      -9.463  -2.031 -13.062  0.00  0.00     0.409 C 
ATOM     21  F   *** d   1      -8.212  -2.178 -12.657  0.00  0.00    -0.189 F 
ATOM     22  F   *** d   1     -10.117  -3.067 -12.561  0.00  0.00    -0.189 F 
BRANCH  20  23
ATOM     23  C   *** d   1     -10.020  -0.772 -12.447  0.00  0.00     0.461 C 
ATOM     24  F   *** d   1      -9.498  -0.549 -11.273  0.00  0.00    -0.165 F 
ATOM     25  F   *** d   1     -11.318  -0.823 -12.298  0.00  0.00    -0.165 F 
ATOM     26  F   *** d   1      -9.752   0.271 -13.184  0.00  0.00    -0.165 F 
ENDBRANCH  20  23
ENDBRANCH  17  20
ENDBRANCH   3  17
TORSDOF 8
ENDMDL
MODEL 3
REMARK VINA RESULT:      -5.7      3.131      6.116
REMARK  8 active torsions:
REMARK  status: ('A' for Active; 'I' for Inactive)
REMARK    1  A    between atoms: O_16  and  C_25 
REMARK    2  A    between atoms: C_18  and  C_19 
REMARK    3  A    between atoms: C_18  and  C_20 
REMARK    4  A    between atoms: C_19  and  C_21 
REMARK    5  A    between atoms: C_20  and  C_22 
REMARK    6  A    between atoms: C_21  and  C_23 
REMARK    7  A    between atoms: C_22  and  C_24 
REMARK    8  A    between atoms: C_23  and  C_25 
ROOT
ATOM      1  F   *** d   1      -5.963  -2.243 -15.014  0.00  0.00    -0.192 F 
ATOM      2  F   *** d   1      -6.831  -0.822 -16.282  0.00  0.00    -0.192 F 
ATOM      3  C   *** d   1      -7.047  -2.001 -15.728  0.00  0.00     0.384 C 
ENDROOT
BRANCH   3   4
ATOM      4  C   *** d   1      -7.130  -3.043 -16.832  0.00  0.00     0.385 C 
ATOM      5  F   *** d   1      -7.645  -2.478 -17.909  0.00  0.00    -0.192 F 
ATOM      6  F   *** d   1      -8.013  -3.960 -16.478  0.00  0.00    -0.192 F 
BRANCH   4   7
ATOM      7  C   *** d   1      -5.850  -3.754 -17.230  0.00  0.00     0.388 C 
ATOM      8  F   *** d   1      -5.487  -4.578 -16.262  0.00  0.00    -0.192 F 
ATOM      9  F   *** d   1      -4.867  -2.875 -17.305  0.00  0.00    -0.192 F 
BRANCH   7  10
ATOM     10  C   *** d   1      -5.856  -4.573 -18.502  0.00  0.00     0.396 C 
ATOM     11  F   *** d   1      -6.011  -3.764 -19.562  0.00  0.00    -0.187 F 
ATOM     12  F   *** d   1      -6.910  -5.402 -18.494  0.00  0.00    -0.187 F 
BRANCH  10  13
ATOM     13  C   *** d   1      -4.563  -5.418 -18.660  0.00  0.00     0.222 C 
ATOM     14  O   *** d   1      -4.451  -6.577 -18.315  0.00  0.00    -0.645 OA
BRANCH  13  15
ATOM     15  O   *** d   1      -3.575  -4.696 -19.238  0.00  0.00    -0.772 OA
ATOM     16  H   *** d   1      -2.703  -4.870 -18.850  0.00  0.00     0.167 HD
ENDBRANCH  13  15
ENDBRANCH  10  13
ENDBRANCH   7  10
ENDBRANCH   4   7
ENDBRANCH   3   4
BRANCH   3  17
ATOM     17  C   *** d   1      -8.229  -1.879 -14.781  0.00  0.00     0.387 C 
ATOM     18  F   *** d   1      -9.332  -2.176 -15.443  0.00  0.00    -0.192 F 
ATOM     19  F   *** d   1      -8.374  -0.610 -14.444  0.00  0.00    -0.192 F 
BRANCH  17  20
ATOM     20  C   *** d   1      -8.209  -2.706 -13.505  0.00  0.00     0.409 C 
ATOM     21  F   *** d   1      -7.214  -2.279 -12.744  0.00  0.00    -0.189 F 
ATOM     22  F   *** d   1      -7.898  -3.953 -13.820  0.00  0.00    -0.189 F 
BRANCH  20  23
ATOM     23  C   *** d   1      -9.470  -2.722 -12.677  0.00  0.00     0.461 C 
ATOM     24  F   *** d   1      -9.383  -3.585 -11.703  0.00  0.00    -0.165 F 
ATOM     25  F   *** d   1     -10.525  -3.031 -13.384  0.00  0.00    -0.165 F 
ATOM     26  F   *** d   1      -9.691  -1.558 -12.132  0.00  0.00    -0.165 F 
ENDBRANCH  20  23
ENDBRANCH  17  20
ENDBRANCH   3  17
TORSDOF 8
ENDMDL
MODEL 4
REMARK VINA RESULT:      -5.5     21.712     23.121
REMARK  8 active torsions:
REMARK  status: ('A' for Active; 'I' for Inactive)
REMARK    1  A    between atoms: O_16  and  C_25 
REMARK    2  A    between atoms: C_18  and  C_19 
REMARK    3  A    between atoms: C_18  and  C_20 
REMARK    4  A    between atoms: C_19  and  C_21 
REMARK    5  A    between atoms: C_20  and  C_22 
REMARK    6  A    between atoms: C_21  and  C_23 
REMARK    7  A    between atoms: C_22  and  C_24 
REMARK    8  A    between atoms: C_23  and  C_25 
ROOT
ATOM      1  F   *** d   1       9.500  14.310  -9.751  0.00  0.00    -0.192 F 
ATOM      2  F   *** d   1       9.504  12.219  -9.854  0.00  0.00    -0.192 F 
ATOM      3  C   *** d   1       8.851  13.240  -9.330  0.00  0.00     0.384 C 
ENDROOT
BRANCH   3   4
ATOM      4  C   *** d   1       8.985  13.169  -7.817  0.00  0.00     0.385 C 
ATOM      5  F   *** d   1       7.895  13.676  -7.271  0.00  0.00    -0.192 F 
ATOM      6  F   *** d   1       9.957  13.982  -7.443  0.00  0.00    -0.192 F 
BRANCH   4   7
ATOM      7  C   *** d   1       9.245  11.810  -7.194  0.00  0.00     0.388 C 
ATOM      8  F   *** d   1      10.276  11.242  -7.795  0.00  0.00    -0.192 F 
ATOM      9  F   *** d   1       8.227  11.009  -7.451  0.00  0.00    -0.192 F 
BRANCH   7  10
ATOM     10  C   *** d   1       9.536  11.751  -5.710  0.00  0.00     0.396 C 
ATOM     11  F   *** d   1       8.663  12.524  -5.046  0.00  0.00    -0.187 F 
ATOM     12  F   *** d   1      10.755  12.256  -5.474  0.00  0.00    -0.187 F 
BRANCH  10  13
ATOM     13  C   *** d   1       9.487  10.298  -5.162  0.00  0.00     0.222 C 
ATOM     14  O   *** d   1      10.358   9.469  -5.331  0.00  0.00    -0.645 OA
BRANCH  13  15
ATOM     15  O   *** d   1       8.349  10.077  -4.466  0.00  0.00    -0.772 OA
ATOM     16  H   *** d   1       7.669   9.620  -4.986  0.00  0.00     0.167 HD
ENDBRANCH  13  15
ENDBRANCH  10  13
ENDBRANCH   7  10
ENDBRANCH   4   7
ENDBRANCH   3   4
BRANCH   3  17
ATOM     17  C   *** d   1       7.448  13.266  -9.914  0.00  0.00     0.387 C 
ATOM     18  F   *** d   1       6.972  14.492  -9.813  0.00  0.00    -0.192 F 
ATOM     19  F   *** d   1       6.657  12.535  -9.150  0.00  0.00    -0.192 F 
BRANCH  17  20
ATOM     20  C   *** d   1       7.267  12.809 -11.354  0.00  0.00     0.409 C 
ATOM     21  F   *** d   1       8.249  13.315 -12.082  0.00  0.00    -0.189 F 
ATOM     22  F   *** d   1       6.161  13.357 -11.830  0.00  0.00    -0.189 F 
BRANCH  20  23
ATOM     23  C   *** d   1       7.208  11.322 -11.600  0.00  0.00     0.461 C 
ATOM     24  F   *** d   1       8.252  10.911 -12.264  0.00  0.00    -0.165 F 
ATOM     25  F   *** d   1       6.147  10.973 -12.280  0.00  0.00    -0.165 F 
ATOM     26  F   *** d   1       7.188  10.659 -10.477  0.00  0.00    -0.165 F 
ENDBRANCH  20  23
ENDBRANCH  17  20
ENDBRANCH   3  17
TORSDOF 8
ENDMDL
MODEL 5
REMARK VINA RESULT:      -5.4     21.215     22.635
REMARK  8 active torsions:
REMARK  status: ('A' for Active; 'I' for Inactive)
REMARK    1  A    between atoms: O_16  and  C_25 
REMARK    2  A    between atoms: C_18  and  C_19 
REMARK    3  A    between atoms: C_18  and  C_20 
REMARK    4  A    between atoms: C_19  and  C_21 
REMARK    5  A    between atoms: C_20  and  C_22 
REMARK    6  A    between atoms: C_21  and  C_23 
REMARK    7  A    between atoms: C_22  and  C_24 
REMARK    8  A    between atoms: C_23  and  C_25 
ROOT
ATOM      1  F   *** d   1       9.164  11.439 -10.311  0.00  0.00    -0.192 F 
ATOM      2  F   *** d   1       7.189  10.789 -10.067  0.00  0.00    -0.192 F 
ATOM      3  C   *** d   1       7.936  11.877 -10.101  0.00  0.00     0.384 C 
ENDROOT
BRANCH   3   4
ATOM      4  C   *** d   1       7.894  12.532  -8.730  0.00  0.00     0.385 C 
ATOM      5  F   *** d   1       6.642  12.559  -8.311  0.00  0.00    -0.192 F 
ATOM      6  F   *** d   1       8.232  13.802  -8.860  0.00  0.00    -0.192 F 
BRANCH   4   7
ATOM      7  C   *** d   1       8.752  11.929  -7.633  0.00  0.00     0.388 C 
ATOM      8  F   *** d   1       9.945  11.635  -8.121  0.00  0.00    -0.192 F 
ATOM      9  F   *** d   1       8.245  10.765  -7.271  0.00  0.00    -0.192 F 
BRANCH   7  10
ATOM     10  C   *** d   1       8.997  12.752  -6.387  0.00  0.00     0.396 C 
ATOM     11  F   *** d   1       7.923  13.514  -6.129  0.00  0.00    -0.187 F 
ATOM     12  F   *** d   1      10.022  13.589  -6.600  0.00  0.00    -0.187 F 
BRANCH  10  13
ATOM     13  C   *** d   1       9.329  11.864  -5.156  0.00  0.00     0.222 C 
ATOM     14  O   *** d   1      10.374  11.266  -5.000  0.00  0.00    -0.645 OA
BRANCH  13  15
ATOM     15  O   *** d   1       8.303  11.848  -4.274  0.00  0.00    -0.772 OA
ATOM     16  H   *** d   1       8.111  12.723  -3.901  0.00  0.00     0.167 HD
ENDBRANCH  13  15
ENDBRANCH  10  13
ENDBRANCH   7  10
ENDBRANCH   4   7
ENDBRANCH   3   4
BRANCH   3  17
ATOM     17  C   *** d   1       7.513  12.715 -11.297  0.00  0.00     0.387 C 
ATOM     18  F   *** d   1       8.481  13.566 -11.579  0.00  0.00    -0.192 F 
ATOM     19  F   *** d   1       6.492  13.474 -10.943  0.00  0.00    -0.192 F 
BRANCH  17  20
ATOM     20  C   *** d   1       7.138  11.988 -12.580  0.00  0.00     0.409 C 
ATOM     21  F   *** d   1       5.993  11.354 -12.383  0.00  0.00    -0.189 F 
ATOM     22  F   *** d   1       8.031  11.037 -12.797  0.00  0.00    -0.189 F 
BRANCH  20  23
ATOM     23  C   *** d   1       7.013  12.822 -13.830  0.00  0.00     0.461 C 
ATOM     24  F   *** d   1       6.442  12.150 -14.791  0.00  0.00    -0.165 F 
ATOM     25  F   *** d   1       8.174  13.230 -14.273  0.00  0.00    -0.165 F 
ATOM     26  F   *** d   1       6.279  13.880 -13.620  0.00  0.00    -0.165 F 
ENDBRANCH  20  23
ENDBRANCH  17  20
ENDBRANCH   3  17
TORSDOF 8
ENDMDL
MODEL 6
REMARK VINA RESULT:      -5.4      2.933      6.067
REMARK  8 active torsions:
REMARK  status: ('A' for Active; 'I' for Inactive)
REMARK    1  A    between atoms: O_16  and  C_25 
REMARK    2  A    between atoms: C_18  and  C_19 
REMARK    3  A    between atoms: C_18  and  C_20 
REMARK    4  A    between atoms: C_19  and  C_21 
REMARK    5  A    between atoms: C_20  and  C_22 
REMARK    6  A    between atoms: C_21  and  C_23 
REMARK    7  A    between atoms: C_22  and  C_24 
REMARK    8  A    between atoms: C_23  and  C_25 
ROOT
ATOM      1  F   *** d   1      -7.570  -4.259 -14.788  0.00  0.00    -0.192 F 
ATOM      2  F   *** d   1      -7.212  -2.310 -14.111  0.00  0.00    -0.192 F 
ATOM      3  C   *** d   1      -7.679  -2.991 -15.142  0.00  0.00     0.384 C 
ENDROOT
BRANCH   3   4
ATOM      4  C   *** d   1      -6.762  -2.750 -16.331  0.00  0.00     0.385 C 
ATOM      5  F   *** d   1      -5.528  -2.593 -15.889  0.00  0.00    -0.192 F 
ATOM      6  F   *** d   1      -7.076  -1.588 -16.874  0.00  0.00    -0.192 F 
BRANCH   4   7
ATOM      7  C   *** d   1      -6.746  -3.794 -17.433  0.00  0.00     0.388 C 
ATOM      8  F   *** d   1      -6.805  -3.191 -18.608  0.00  0.00    -0.192 F 
ATOM      9  F   *** d   1      -7.853  -4.511 -17.372  0.00  0.00    -0.192 F 
BRANCH   7  10
ATOM     10  C   *** d   1      -5.567  -4.740 -17.502  0.00  0.00     0.396 C 
ATOM     11  F   *** d   1      -5.937  -5.882 -18.100  0.00  0.00    -0.187 F 
ATOM     12  F   *** d   1      -5.182  -5.063 -16.259  0.00  0.00    -0.187 F 
BRANCH  10  13
ATOM     13  C   *** d   1      -4.358  -4.114 -18.248  0.00  0.00     0.222 C 
ATOM     14  O   *** d   1      -3.456  -3.504 -17.710  0.00  0.00    -0.645 OA
BRANCH  13  15
ATOM     15  O   *** d   1      -4.435  -4.341 -19.580  0.00  0.00    -0.772 OA
ATOM     16  H   *** d   1      -5.251  -4.796 -19.839  0.00  0.00     0.167 HD
ENDBRANCH  13  15
ENDBRANCH  10  13
ENDBRANCH   7  10
ENDBRANCH   4   7
ENDBRANCH   3   4
BRANCH   3  17
ATOM     17  C   *** d   1      -9.153  -2.663 -15.309  0.00  0.00     0.387 C 
ATOM     18  F   *** d   1      -9.832  -3.793 -15.368  0.00  0.00    -0.192 F 
ATOM     19  F   *** d   1      -9.331  -2.104 -16.492  0.00  0.00    -0.192 F 
BRANCH  17  20
ATOM     20  C   *** d   1      -9.809  -1.774 -14.264  0.00  0.00     0.409 C 
ATOM     21  F   *** d   1     -10.847  -1.170 -14.819  0.00  0.00    -0.189 F 
ATOM     22  F   *** d   1      -8.965  -0.803 -13.953  0.00  0.00    -0.189 F 
BRANCH  20  23
ATOM     23  C   *** d   1     -10.267  -2.436 -12.989  0.00  0.00     0.461 C 
ATOM     24  F   *** d   1     -11.363  -3.117 -13.178  0.00  0.00    -0.165 F 
ATOM     25  F   *** d   1     -10.500  -1.571 -12.036  0.00  0.00    -0.165 F 
ATOM     26  F   *** d   1      -9.371  -3.275 -12.546  0.00  0.00    -0.165 F 
ENDBRANCH  20  23
ENDBRANCH  17  20
ENDBRANCH   3  17
TORSDOF 8
ENDMDL
MODEL 7
REMARK VINA RESULT:      -5.3     19.820     22.282
REMARK  8 active torsions:
REMARK  status: ('A' for Active; 'I' for Inactive)
REMARK    1  A    between atoms: O_16  and  C_25 
REMARK    2  A    between atoms: C_18  and  C_19 
REMARK    3  A    between atoms: C_18  and  C_20 
REMARK    4  A    between atoms: C_19  and  C_21 
REMARK    5  A    between atoms: C_20  and  C_22 
REMARK    6  A    between atoms: C_21  and  C_23 
REMARK    7  A    between atoms: C_22  and  C_24 
REMARK    8  A    between atoms: C_23  and  C_25 
ROOT
ATOM      1  F   *** d   1     -19.379  -5.014   1.377  0.00  0.00    -0.192 F 
ATOM      2  F   *** d   1     -17.793  -3.818   2.035  0.00  0.00    -0.192 F 
ATOM      3  C   *** d   1     -19.068  -4.079   2.256  0.00  0.00     0.384 C 
ENDROOT
BRANCH   3   4
ATOM      4  C   *** d   1     -19.877  -2.833   1.931  0.00  0.00     0.385 C 
ATOM      5  F   *** d   1     -20.458  -2.406   3.036  0.00  0.00    -0.192 F 
ATOM      6  F   *** d   1     -20.875  -3.176   1.137  0.00  0.00    -0.192 F 
BRANCH   4   7
ATOM      7  C   *** d   1     -19.148  -1.666   1.292  0.00  0.00     0.388 C 
ATOM      8  F   *** d   1     -18.907  -1.943   0.021  0.00  0.00    -0.192 F 
ATOM      9  F   *** d   1     -17.952  -1.544   1.838  0.00  0.00    -0.192 F 
BRANCH   7  10
ATOM     10  C   *** d   1     -19.822  -0.311   1.308  0.00  0.00     0.396 C 
ATOM     11  F   *** d   1     -20.972  -0.385   1.995  0.00  0.00    -0.187 F 
ATOM     12  F   *** d   1     -20.143   0.042   0.055  0.00  0.00    -0.187 F 
BRANCH  10  13
ATOM     13  C   *** d   1     -18.908   0.789   1.914  0.00  0.00     0.222 C 
ATOM     14  O   *** d   1     -18.266   1.588   1.262  0.00  0.00    -0.645 OA
BRANCH  13  15
ATOM     15  O   *** d   1     -18.923   0.746   3.266  0.00  0.00    -0.772 OA
ATOM     16  H   *** d   1     -18.921   1.627   3.672  0.00  0.00     0.167 HD
ENDBRANCH  13  15
ENDBRANCH  10  13
ENDBRANCH   7  10
ENDBRANCH   4   7
ENDBRANCH   3   4
BRANCH   3  17
ATOM     17  C   *** d   1     -19.204  -4.666   3.651  0.00  0.00     0.387 C 
ATOM     18  F   *** d   1     -18.852  -5.938   3.610  0.00  0.00    -0.192 F 
ATOM     19  F   *** d   1     -20.483  -4.684   3.980  0.00  0.00    -0.192 F 
BRANCH  17  20
ATOM     20  C   *** d   1     -18.436  -4.002   4.783  0.00  0.00     0.409 C 
ATOM     21  F   *** d   1     -18.274  -2.723   4.486  0.00  0.00    -0.189 F 
ATOM     22  F   *** d   1     -17.215  -4.511   4.815  0.00  0.00    -0.189 F 
BRANCH  20  23
ATOM     23  C   *** d   1     -19.030  -4.099   6.166  0.00  0.00     0.461 C 
ATOM     24  F   *** d   1     -20.195  -3.515   6.222  0.00  0.00    -0.165 F 
ATOM     25  F   *** d   1     -18.269  -3.545   7.074  0.00  0.00    -0.165 F 
ATOM     26  F   *** d   1     -19.213  -5.343   6.514  0.00  0.00    -0.165 F 
ENDBRANCH  20  23
ENDBRANCH  17  20
ENDBRANCH   3  17
TORSDOF 8
ENDMDL
MODEL 8
REMARK VINA RESULT:      -5.3      2.668      5.942
REMARK  8 active torsions:
REMARK  status: ('A' for Active; 'I' for Inactive)
REMARK    1  A    between atoms: O_16  and  C_25 
REMARK    2  A    between atoms: C_18  and  C_19 
REMARK    3  A    between atoms: C_18  and  C_20 
REMARK    4  A    between atoms: C_19  and  C_21 
REMARK    5  A    between atoms: C_20  and  C_22 
REMARK    6  A    between atoms: C_21  and  C_23 
REMARK    7  A    between atoms: C_22  and  C_24 
REMARK    8  A    between atoms: C_23  and  C_25 
ROOT
ATOM      1  F   *** d   1      -9.997  -2.469 -15.942  0.00  0.00    -0.192 F 
ATOM      2  F   *** d   1      -8.662  -3.648 -14.843  0.00  0.00    -0.192 F 
ATOM      3  C   *** d   1      -8.743  -2.526 -15.534  0.00  0.00     0.384 C 
ENDROOT
BRANCH   3   4
ATOM      4  C   *** d   1      -7.850  -2.652 -16.759  0.00  0.00     0.385 C 
ATOM      5  F   *** d   1      -7.991  -1.567 -17.498  0.00  0.00    -0.192 F 
ATOM      6  F   *** d   1      -8.308  -3.635 -17.513  0.00  0.00    -0.192 F 
BRANCH   4   7
ATOM      7  C   *** d   1      -6.369  -2.887 -16.531  0.00  0.00     0.388 C 
ATOM      8  F   *** d   1      -6.189  -3.439 -15.343  0.00  0.00    -0.192 F 
ATOM      9  F   *** d   1      -5.748  -1.724 -16.453  0.00  0.00    -0.192 F 
BRANCH   7  10
ATOM     10  C   *** d   1      -5.626  -3.759 -17.520  0.00  0.00     0.396 C 
ATOM     11  F   *** d   1      -4.394  -3.267 -17.722  0.00  0.00    -0.187 F 
ATOM     12  F   *** d   1      -6.253  -3.726 -18.704  0.00  0.00    -0.187 F 
BRANCH  10  13
ATOM     13  C   *** d   1      -5.539  -5.236 -17.046  0.00  0.00     0.222 C 
ATOM     14  O   *** d   1      -6.487  -5.991 -16.967  0.00  0.00    -0.645 OA
BRANCH  13  15
ATOM     15  O   *** d   1      -4.267  -5.576 -16.738  0.00  0.00    -0.772 OA
ATOM     16  H   *** d   1      -4.211  -6.375 -16.189  0.00  0.00     0.167 HD
ENDBRANCH  13  15
ENDBRANCH  10  13
ENDBRANCH   7  10
ENDBRANCH   4   7
ENDBRANCH   3   4
BRANCH   3  17
ATOM     17  C   *** d   1      -8.489  -1.361 -14.592  0.00  0.00     0.387 C 
ATOM     18  F   *** d   1      -7.848  -0.416 -15.253  0.00  0.00    -0.192 F 
ATOM     19  F   *** d   1      -7.642  -1.748 -13.656  0.00  0.00    -0.192 F 
BRANCH  17  20
ATOM     20  C   *** d   1      -9.689  -0.724 -13.907  0.00  0.00     0.409 C 
ATOM     21  F   *** d   1     -10.708  -0.736 -14.750  0.00  0.00    -0.189 F 
ATOM     22  F   *** d   1      -9.421   0.556 -13.700  0.00  0.00    -0.189 F 
BRANCH  20  23
ATOM     23  C   *** d   1     -10.140  -1.334 -12.603  0.00  0.00     0.461 C 
ATOM     24  F   *** d   1      -9.358  -0.979 -11.621  0.00  0.00    -0.165 F 
ATOM     25  F   *** d   1     -10.152  -2.640 -12.644  0.00  0.00    -0.165 F 
ATOM     26  F   *** d   1     -11.343  -0.940 -12.291  0.00  0.00    -0.165 F 
ENDBRANCH  20  23
ENDBRANCH  17  20
ENDBRANCH   3  17
TORSDOF 8
ENDMDL
MODEL 9
REMARK VINA RESULT:      -5.3     28.231     30.425
REMARK  8 active torsions:
REMARK  status: ('A' for Active; 'I' for Inactive)
REMARK    1  A    between atoms: O_16  and  C_25 
REMARK    2  A    between atoms: C_18  and  C_19 
REMARK    3  A    between atoms: C_18  and  C_20 
REMARK    4  A    between atoms: C_19  and  C_21 
REMARK    5  A    between atoms: C_20  and  C_22 
REMARK    6  A    between atoms: C_21  and  C_23 
REMARK    7  A    between atoms: C_22  and  C_24 
REMARK    8  A    between atoms: C_23  and  C_25 
ROOT
ATOM      1  F   *** d   1       4.690  15.815   6.949  0.00  0.00    -0.192 F 
ATOM      2  F   *** d   1       6.337  15.597   5.675  0.00  0.00    -0.192 F 
ATOM      3  C   *** d   1       5.018  15.534   5.701  0.00  0.00     0.384 C 
ENDROOT
BRANCH   3   4
ATOM      4  C   *** d   1       4.600  14.101   5.411  0.00  0.00     0.385 C 
ATOM      5  F   *** d   1       5.624  13.304   5.654  0.00  0.00    -0.192 F 
ATOM      6  F   *** d   1       4.382  13.983   4.113  0.00  0.00    -0.192 F 
BRANCH   4   7
ATOM      7  C   *** d   1       3.387  13.558   6.142  0.00  0.00     0.388 C 
ATOM      8  F   *** d   1       2.670  12.819   5.313  0.00  0.00    -0.192 F 
ATOM      9  F   *** d   1       2.589  14.559   6.469  0.00  0.00    -0.192 F 
BRANCH   7  10
ATOM     10  C   *** d   1       3.618  12.709   7.373  0.00  0.00     0.396 C 
ATOM     11  F   *** d   1       2.676  12.977   8.291  0.00  0.00    -0.187 F 
ATOM     12  F   *** d   1       4.796  13.034   7.924  0.00  0.00    -0.187 F 
BRANCH  10  13
ATOM     13  C   *** d   1       3.626  11.192   7.044  0.00  0.00     0.222 C 
ATOM     14  O   *** d   1       4.552  10.605   6.522  0.00  0.00    -0.645 OA
BRANCH  13  15
ATOM     15  O   *** d   1       2.467  10.604   7.421  0.00  0.00    -0.772 OA
ATOM     16  H   *** d   1       1.718  10.847   6.854  0.00  0.00     0.167 HD
ENDBRANCH  13  15
ENDBRANCH  10  13
ENDBRANCH   7  10
ENDBRANCH   4   7
ENDBRANCH   3   4
BRANCH   3  17
ATOM     17  C   *** d   1       4.466  16.627   4.801  0.00  0.00     0.387 C 
ATOM     18  F   *** d   1       3.275  16.257   4.370  0.00  0.00    -0.192 F 
ATOM     19  F   *** d   1       5.209  16.695   3.711  0.00  0.00    -0.192 F 
BRANCH  17  20
ATOM     20  C   *** d   1       4.343  18.030   5.375  0.00  0.00     0.409 C 
ATOM     21  F   *** d   1       4.742  18.896   4.458  0.00  0.00    -0.189 F 
ATOM     22  F   *** d   1       5.207  18.151   6.370  0.00  0.00    -0.189 F 
BRANCH  20  23
ATOM     23  C   *** d   1       2.983  18.453   5.870  0.00  0.00     0.461 C 
ATOM     24  F   *** d   1       2.442  17.527   6.613  0.00  0.00    -0.165 F 
ATOM     25  F   *** d   1       2.154  18.706   4.892  0.00  0.00    -0.165 F 
ATOM     26  F   *** d   1       3.062  19.528   6.605  0.00  0.00    -0.165 F 
ENDBRANCH  20  23
ENDBRANCH  17  20
ENDBRANCH   3  17
TORSDOF 8
ENDMDL
MODEL 10
REMARK VINA RESULT:      -5.2     22.401     23.812
REMARK  8 active torsions:
REMARK  status: ('A' for Active; 'I' for Inactive)
REMARK    1  A    between atoms: O_16  and  C_25 
REMARK    2  A    between atoms: C_18  and  C_19 
REMARK    3  A    between atoms: C_18  and  C_20 
REMARK    4  A    between atoms: C_19  and  C_21 
REMARK    5  A    between atoms: C_20  and  C_22 
REMARK    6  A    between atoms: C_21  and  C_23 
REMARK    7  A    between atoms: C_22  and  C_24 
REMARK    8  A    between atoms: C_23  and  C_25 
ROOT
ATOM      1  F   *** d   1       7.997  13.639  -7.230  0.00  0.00    -0.192 F 
ATOM      2  F   *** d   1       9.751  13.617  -8.371  0.00  0.00    -0.192 F 
ATOM      3  C   *** d   1       8.721  12.869  -8.022  0.00  0.00     0.384 C 
ENDROOT
BRANCH   3   4
ATOM      4  C   *** d   1       9.235  11.695  -7.204  0.00  0.00     0.385 C 
ATOM      5  F   *** d   1      10.276  11.171  -7.823  0.00  0.00    -0.192 F 
ATOM      6  F   *** d   1       8.320  10.742  -7.217  0.00  0.00    -0.192 F 
BRANCH   4   7
ATOM      7  C   *** d   1       9.618  11.956  -5.760  0.00  0.00     0.388 C 
ATOM      8  F   *** d   1       8.610  12.542  -5.137  0.00  0.00    -0.192 F 
ATOM      9  F   *** d   1      10.595  12.845  -5.720  0.00  0.00    -0.192 F 
BRANCH   7  10
ATOM     10  C   *** d   1      10.014  10.773  -4.902  0.00  0.00     0.396 C 
ATOM     11  F   *** d   1      10.674   9.874  -5.649  0.00  0.00    -0.187 F 
ATOM     12  F   *** d   1       8.910  10.162  -4.450  0.00  0.00    -0.187 F 
BRANCH  10  13
ATOM     13  C   *** d   1      10.881  11.197  -3.686  0.00  0.00     0.222 C 
ATOM     14  O   *** d   1      12.086  11.064  -3.618  0.00  0.00    -0.645 OA
BRANCH  13  15
ATOM     15  O   *** d   1      10.119  11.741  -2.709  0.00  0.00    -0.772 OA
ATOM     16  H   *** d   1       9.363  11.184  -2.464  0.00  0.00     0.167 HD
ENDBRANCH  13  15
ENDBRANCH  10  13
ENDBRANCH   7  10
ENDBRANCH   4   7
ENDBRANCH   3   4
BRANCH   3  17
ATOM     17  C   *** d   1       7.906  12.560  -9.268  0.00  0.00     0.387 C 
ATOM     18  F   *** d   1       6.758  12.024  -8.898  0.00  0.00    -0.192 F 
ATOM     19  F   *** d   1       8.517  11.606  -9.947  0.00  0.00    -0.192 F 
BRANCH  17  20
ATOM     20  C   *** d   1       7.606  13.702 -10.226  0.00  0.00     0.409 C 
ATOM     21  F   *** d   1       8.676  14.477 -10.304  0.00  0.00    -0.189 F 
ATOM     22  F   *** d   1       6.663  14.460  -9.689  0.00  0.00    -0.189 F 
BRANCH  20  23
ATOM     23  C   *** d   1       7.181  13.332 -11.625  0.00  0.00     0.461 C 
ATOM     24  F   *** d   1       6.460  12.246 -11.627  0.00  0.00    -0.165 F 
ATOM     25  F   *** d   1       8.202  13.129 -12.416  0.00  0.00    -0.165 F 
ATOM     26  F   *** d   1       6.451  14.272 -12.160  0.00  0.00    -0.165 F 
ENDBRANCH  20  23
ENDBRANCH  17  20
ENDBRANCH   3  17
TORSDOF 8
ENDMDL
MODEL 11
REMARK VINA RESULT:      -5.2     28.866     31.164
REMARK  8 active torsions:
REMARK  status: ('A' for Active; 'I' for Inactive)
REMARK    1  A    between atoms: O_16  and  C_25 
REMARK    2  A    between atoms: C_18  and  C_19 
REMARK    3  A    between atoms: C_18  and  C_20 
REMARK    4  A    between atoms: C_19  and  C_21 
REMARK    5  A    between atoms: C_20  and  C_22 
REMARK    6  A    between atoms: C_21  and  C_23 
REMARK    7  A    between atoms: C_22  and  C_24 
REMARK    8  A    between atoms: C_23  and  C_25 
ROOT
ATOM      1  F   *** d   1       5.060  16.179   6.126  0.00  0.00    -0.192 F 
ATOM      2  F   *** d   1       3.256  15.954   5.089  0.00  0.00    -0.192 F 
ATOM      3  C   *** d   1       3.750  16.199   6.289  0.00  0.00     0.384 C 
ENDROOT
BRANCH   3   4
ATOM      4  C   *** d   1       3.368  15.050   7.209  0.00  0.00     0.385 C 
ATOM      5  F   *** d   1       2.067  15.098   7.429  0.00  0.00    -0.192 F 
ATOM      6  F   *** d   1       3.918  15.259   8.391  0.00  0.00    -0.192 F 
BRANCH   4   7
ATOM      7  C   *** d   1       3.727  13.643   6.767  0.00  0.00     0.388 C 
ATOM      8  F   *** d   1       4.947  13.641   6.259  0.00  0.00    -0.192 F 
ATOM      9  F   *** d   1       2.948  13.289   5.761  0.00  0.00    -0.192 F 
BRANCH   7  10
ATOM     10  C   *** d   1       3.699  12.542   7.804  0.00  0.00     0.396 C 
ATOM     11  F   *** d   1       2.663  12.730   8.637  0.00  0.00    -0.187 F 
ATOM     12  F   *** d   1       4.810  12.605   8.551  0.00  0.00    -0.187 F 
BRANCH  10  13
ATOM     13  C   *** d   1       3.615  11.132   7.158  0.00  0.00     0.222 C 
ATOM     14  O   *** d   1       4.515  10.605   6.537  0.00  0.00    -0.645 OA
BRANCH  13  15
ATOM     15  O   *** d   1       2.409  10.563   7.383  0.00  0.00    -0.772 OA
ATOM     16  H   *** d   1       2.439   9.865   8.057  0.00  0.00     0.167 HD
ENDBRANCH  13  15
ENDBRANCH  10  13
ENDBRANCH   7  10
ENDBRANCH   4   7
ENDBRANCH   3   4
BRANCH   3  17
ATOM     17  C   *** d   1       3.337  17.602   6.702  0.00  0.00     0.387 C 
ATOM     18  F   *** d   1       4.149  18.016   7.657  0.00  0.00    -0.192 F 
ATOM     19  F   *** d   1       2.149  17.543   7.276  0.00  0.00    -0.192 F 
BRANCH  17  20
ATOM     20  C   *** d   1       3.287  18.677   5.627  0.00  0.00     0.409 C 
ATOM     21  F   *** d   1       2.207  18.482   4.889  0.00  0.00    -0.189 F 
ATOM     22  F   *** d   1       4.310  18.495   4.807  0.00  0.00    -0.189 F 
BRANCH  20  23
ATOM     23  C   *** d   1       3.296  20.112   6.090  0.00  0.00     0.461 C 
ATOM     24  F   *** d   1       2.486  20.289   7.097  0.00  0.00    -0.165 F 
ATOM     25  F   *** d   1       2.936  20.941   5.145  0.00  0.00    -0.165 F 
ATOM     26  F   *** d   1       4.484  20.470   6.494  0.00  0.00    -0.165 F 
ENDBRANCH  20  23
ENDBRANCH  17  20
ENDBRANCH   3  17
TORSDOF 8
ENDMDL
MODEL 12
REMARK VINA RESULT:      -5.2     28.923     30.669
REMARK  8 active torsions:
REMARK  status: ('A' for Active; 'I' for Inactive)
REMARK    1  A    between atoms: O_16  and  C_25 
REMARK    2  A    between atoms: C_18  and  C_19 
REMARK    3  A    between atoms: C_18  and  C_20 
REMARK    4  A    between atoms: C_19  and  C_21 
REMARK    5  A    between atoms: C_20  and  C_22 
REMARK    6  A    between atoms: C_21  and  C_23 
REMARK    7  A    between atoms: C_22  and  C_24 
REMARK    8  A    between atoms: C_23  and  C_25 
ROOT
ATOM      1  F   *** d   1       4.977  14.811   7.567  0.00  0.00    -0.192 F 
ATOM      2  F   *** d   1       5.285  12.784   7.988  0.00  0.00    -0.192 F 
ATOM      3  C   *** d   1       4.454  13.613   7.383  0.00  0.00     0.384 C 
ENDROOT
BRANCH   3   4
ATOM      4  C   *** d   1       3.117  13.563   8.106  0.00  0.00     0.385 C 
ATOM      5  F   *** d   1       2.520  12.422   7.815  0.00  0.00    -0.192 F 
ATOM      6  F   *** d   1       2.330  14.494   7.597  0.00  0.00    -0.192 F 
BRANCH   4   7
ATOM      7  C   *** d   1       3.123  13.729   9.614  0.00  0.00     0.388 C 
ATOM      8  F   *** d   1       4.082  14.571   9.959  0.00  0.00    -0.192 F 
ATOM      9  F   *** d   1       3.466  12.585  10.178  0.00  0.00    -0.192 F 
BRANCH   7  10
ATOM     10  C   *** d   1       1.861  14.230  10.281  0.00  0.00     0.396 C 
ATOM     11  F   *** d   1       0.788  13.819   9.588  0.00  0.00    -0.187 F 
ATOM     12  F   *** d   1       1.846  15.571  10.256  0.00  0.00    -0.187 F 
BRANCH  10  13
ATOM     13  C   *** d   1       1.754  13.762  11.758  0.00  0.00     0.222 C 
ATOM     14  O   *** d   1       2.362  14.258  12.684  0.00  0.00    -0.645 OA
BRANCH  13  15
ATOM     15  O   *** d   1       0.888  12.730  11.881  0.00  0.00    -0.772 OA
ATOM     16  H   *** d   1       1.303  11.927  12.236  0.00  0.00     0.167 HD
ENDBRANCH  13  15
ENDBRANCH  10  13
ENDBRANCH   7  10
ENDBRANCH   4   7
ENDBRANCH   3   4
BRANCH   3  17
ATOM     17  C   *** d   1       4.464  13.306   5.895  0.00  0.00     0.387 C 
ATOM     18  F   *** d   1       3.217  13.198   5.478  0.00  0.00    -0.192 F 
ATOM     19  F   *** d   1       4.983  12.105   5.713  0.00  0.00    -0.192 F 
BRANCH  17  20
ATOM     20  C   *** d   1       5.186  14.276   4.972  0.00  0.00     0.409 C 
ATOM     21  F   *** d   1       5.651  13.599   3.934  0.00  0.00    -0.189 F 
ATOM     22  F   *** d   1       6.258  14.731   5.601  0.00  0.00    -0.189 F 
BRANCH  20  23
ATOM     23  C   *** d   1       4.397  15.454   4.459  0.00  0.00     0.461 C 
ATOM     24  F   *** d   1       5.184  16.384   3.996  0.00  0.00    -0.165 F 
ATOM     25  F   *** d   1       3.652  15.994   5.388  0.00  0.00    -0.165 F 
ATOM     26  F   *** d   1       3.609  15.103   3.480  0.00  0.00    -0.165 F 
ENDBRANCH  20  23
ENDBRANCH  17  20
ENDBRANCH   3  17
TORSDOF 8
ENDMDL
MODEL 13
REMARK VINA RESULT:      -5.2     29.112     31.773
REMARK  8 active torsions:
REMARK  status: ('A' for Active; 'I' for Inactive)
REMARK    1  A    between atoms: O_16  and  C_25 
REMARK    2  A    between atoms: C_18  and  C_19 
REMARK    3  A    between atoms: C_18  and  C_20 
REMARK    4  A    between atoms: C_19  and  C_21 
REMARK    5  A    between atoms: C_20  and  C_22 
REMARK    6  A    between atoms: C_21  and  C_23 
REMARK    7  A    between atoms: C_22  and  C_24 
REMARK    8  A    between atoms: C_23  and  C_25 
ROOT
ATOM      1  F   *** d   1       4.588  14.779   9.597  0.00  0.00    -0.192 F 
ATOM      2  F   *** d   1       3.501  16.324   8.698  0.00  0.00    -0.192 F 
ATOM      3  C   *** d   1       3.398  15.074   9.109  0.00  0.00     0.384 C 
ENDROOT
BRANCH   3   4
ATOM      4  C   *** d   1       3.148  14.189   7.898  0.00  0.00     0.385 C 
ATOM      5  F   *** d   1       2.186  14.726   7.172  0.00  0.00    -0.192 F 
ATOM      6  F   *** d   1       2.653  13.037   8.315  0.00  0.00    -0.192 F 
BRANCH   4   7
ATOM      7  C   *** d   1       4.325  13.891   6.988  0.00  0.00     0.388 C 
ATOM      8  F   *** d   1       5.197  13.133   7.631  0.00  0.00    -0.192 F 
ATOM      9  F   *** d   1       4.979  15.011   6.738  0.00  0.00    -0.192 F 
BRANCH   7  10
ATOM     10  C   *** d   1       4.050  13.195   5.672  0.00  0.00     0.396 C 
ATOM     11  F   *** d   1       2.824  12.649   5.697  0.00  0.00    -0.187 F 
ATOM     12  F   *** d   1       4.918  12.186   5.512  0.00  0.00    -0.187 F 
BRANCH  10  13
ATOM     13  C   *** d   1       4.180  14.159   4.462  0.00  0.00     0.222 C 
ATOM     14  O   *** d   1       5.182  14.285   3.786  0.00  0.00    -0.645 OA
BRANCH  13  15
ATOM     15  O   *** d   1       3.030  14.839   4.252  0.00  0.00    -0.772 OA
ATOM     16  H   *** d   1       2.386  14.723   4.969  0.00  0.00     0.167 HD
ENDBRANCH  13  15
ENDBRANCH  10  13
ENDBRANCH   7  10
ENDBRANCH   4   7
ENDBRANCH   3   4
BRANCH   3  17
ATOM     17  C   *** d   1       2.386  15.022  10.243  0.00  0.00     0.387 C 
ATOM     18  F   *** d   1       1.222  14.640   9.752  0.00  0.00    -0.192 F 
ATOM     19  F   *** d   1       2.177  16.250  10.681  0.00  0.00    -0.192 F 
BRANCH  17  20
ATOM     20  C   *** d   1       2.703  14.141  11.441  0.00  0.00     0.409 C 
ATOM     21  F   *** d   1       3.682  14.705  12.129  0.00  0.00    -0.189 F 
ATOM     22  F   *** d   1       3.200  12.997  10.999  0.00  0.00    -0.189 F 
BRANCH  20  23
ATOM     23  C   *** d   1       1.569  13.835  12.388  0.00  0.00     0.461 C 
ATOM     24  F   *** d   1       0.783  12.915  11.901  0.00  0.00    -0.165 F 
ATOM     25  F   *** d   1       0.835  14.887  12.641  0.00  0.00    -0.165 F 
ATOM     26  F   *** d   1       2.016  13.385  13.528  0.00  0.00    -0.165 F 
ENDBRANCH  20  23
ENDBRANCH  17  20
ENDBRANCH   3  17
TORSDOF 8
ENDMDL
MODEL 14
REMARK VINA RESULT:      -5.2     22.388     23.779
REMARK  8 active torsions:
REMARK  status: ('A' for Active; 'I' for Inactive)
REMARK    1  A    between atoms: O_16  and  C_25 
REMARK    2  A    between atoms: C_18  and  C_19 
REMARK    3  A    between atoms: C_18  and  C_20 
REMARK    4  A    between atoms: C_19  and  C_21 
REMARK    5  A    between atoms: C_20  and  C_22 
REMARK    6  A    between atoms: C_21  and  C_23 
REMARK    7  A    between atoms: C_22  and  C_24 
REMARK    8  A    between atoms: C_23  and  C_25 
ROOT
ATOM      1  F   *** d   1      10.344  13.938  -8.412  0.00  0.00    -0.192 F 
ATOM      2  F   *** d   1      10.101  11.956  -9.041  0.00  0.00    -0.192 F 
ATOM      3  C   *** d   1       9.439  12.986  -8.546  0.00  0.00     0.384 C 
ENDROOT
BRANCH   3   4
ATOM      4  C   *** d   1       8.934  12.612  -7.162  0.00  0.00     0.385 C 
ATOM      5  F   *** d   1       7.907  11.792  -7.292  0.00  0.00    -0.192 F 
ATOM      6  F   *** d   1       8.431  13.693  -6.592  0.00  0.00    -0.192 F 
BRANCH   4   7
ATOM      7  C   *** d   1       9.923  11.989  -6.194  0.00  0.00     0.388 C 
ATOM      8  F   *** d   1      10.807  12.901  -5.823  0.00  0.00    -0.192 F 
ATOM      9  F   *** d   1      10.636  11.074  -6.825  0.00  0.00    -0.192 F 
BRANCH   7  10
ATOM     10  C   *** d   1       9.384  11.379  -4.918  0.00  0.00     0.396 C 
ATOM     11  F   *** d   1       8.770  10.219  -5.195  0.00  0.00    -0.187 F 
ATOM     12  F   *** d   1       8.456  12.192  -4.393  0.00  0.00    -0.187 F 
BRANCH  10  13
ATOM     13  C   *** d   1      10.500  11.153  -3.862  0.00  0.00     0.222 C 
ATOM     14  O   *** d   1      11.464  10.433  -4.022  0.00  0.00    -0.645 OA
BRANCH  13  15
ATOM     15  O   *** d   1      10.262  11.870  -2.739  0.00  0.00    -0.772 OA
ATOM     16  H   *** d   1       9.317  12.029  -2.585  0.00  0.00     0.167 HD
ENDBRANCH  13  15
ENDBRANCH  10  13
ENDBRANCH   7  10
ENDBRANCH   4   7
ENDBRANCH   3   4
BRANCH   3  17
ATOM     17  C   *** d   1       8.414  13.438  -9.574  0.00  0.00     0.387 C 
ATOM     18  F   *** d   1       8.891  14.490 -10.211  0.00  0.00    -0.192 F 
ATOM     19  F   *** d   1       7.347  13.887  -8.939  0.00  0.00    -0.192 F 
BRANCH  17  20
ATOM     20  C   *** d   1       7.953  12.427 -10.613  0.00  0.00     0.409 C 
ATOM     21  F   *** d   1       7.375  11.415  -9.987  0.00  0.00    -0.189 F 
ATOM     22  F   *** d   1       9.022  11.912 -11.198  0.00  0.00    -0.189 F 
BRANCH  20  23
ATOM     23  C   *** d   1       7.014  12.923 -11.685  0.00  0.00     0.461 C 
ATOM     24  F   *** d   1       6.273  13.902 -11.246  0.00  0.00    -0.165 F 
ATOM     25  F   *** d   1       6.213  11.985 -12.117  0.00  0.00    -0.165 F 
ATOM     26  F   *** d   1       7.674  13.380 -12.714  0.00  0.00    -0.165 F 
ENDBRANCH  20  23
ENDBRANCH  17  20
ENDBRANCH   3  17
TORSDOF 8
ENDMDL
MODEL 15
REMARK VINA RESULT:      -5.1     23.155     25.904
REMARK  8 active torsions:
REMARK  status: ('A' for Active; 'I' for Inactive)
REMARK    1  A    between atoms: O_16  and  C_25 
REMARK    2  A    between atoms: C_18  and  C_19 
REMARK    3  A    between atoms: C_18  and  C_20 
REMARK    4  A    between atoms: C_19  and  C_21 
REMARK    5  A    between atoms: C_20  and  C_22 
REMARK    6  A    between atoms: C_21  and  C_23 
REMARK    7  A    between atoms: C_22  and  C_24 
REMARK    8  A    between atoms: C_23  and  C_25 
ROOT
ATOM      1  F   *** d   1      -3.551  -5.421  10.738  0.00  0.00    -0.192 F 
ATOM      2  F   *** d   1      -4.587  -3.856   9.813  0.00  0.00    -0.192 F 
ATOM      3  C   *** d   1      -3.565  -4.675   9.649  0.00  0.00     0.384 C 
ENDROOT
BRANCH   3   4
ATOM      4  C   *** d   1      -2.288  -3.851   9.621  0.00  0.00     0.385 C 
ATOM      5  F   *** d   1      -2.478  -2.802   8.842  0.00  0.00    -0.192 F 
ATOM      6  F   *** d   1      -1.347  -4.554   9.017  0.00  0.00    -0.192 F 
BRANCH   4   7
ATOM      7  C   *** d   1      -1.732  -3.367  10.947  0.00  0.00     0.388 C 
ATOM      8  F   *** d   1      -0.564  -2.780  10.745  0.00  0.00    -0.192 F 
ATOM      9  F   *** d   1      -1.453  -4.407  11.711  0.00  0.00    -0.192 F 
BRANCH   7  10
ATOM     10  C   *** d   1      -2.561  -2.391  11.754  0.00  0.00     0.396 C 
ATOM     11  F   *** d   1      -3.553  -3.047  12.377  0.00  0.00    -0.187 F 
ATOM     12  F   *** d   1      -3.142  -1.509  10.928  0.00  0.00    -0.187 F 
BRANCH  10  13
ATOM     13  C   *** d   1      -1.704  -1.611  12.788  0.00  0.00     0.222 C 
ATOM     14  O   *** d   1      -1.220  -2.099  13.790  0.00  0.00    -0.645 OA
BRANCH  13  15
ATOM     15  O   *** d   1      -1.561  -0.316  12.426  0.00  0.00    -0.772 OA
ATOM     16  H   *** d   1      -1.186   0.235  13.132  0.00  0.00     0.167 HD
ENDBRANCH  13  15
ENDBRANCH  10  13
ENDBRANCH   7  10
ENDBRANCH   4   7
ENDBRANCH   3   4
BRANCH   3  17
ATOM     17  C   *** d   1      -3.853  -5.572   8.456  0.00  0.00     0.387 C 
ATOM     18  F   *** d   1      -2.881  -6.458   8.350  0.00  0.00    -0.192 F 
ATOM     19  F   *** d   1      -3.770  -4.850   7.353  0.00  0.00    -0.192 F 
BRANCH  17  20
ATOM     20  C   *** d   1      -5.177  -6.321   8.429  0.00  0.00     0.409 C 
ATOM     21  F   *** d   1      -5.610  -6.452   9.673  0.00  0.00    -0.189 F 
ATOM     22  F   *** d   1      -4.950  -7.554   8.006  0.00  0.00    -0.189 F 
BRANCH  20  23
ATOM     23  C   *** d   1      -6.286  -5.727   7.597  0.00  0.00     0.461 C 
ATOM     24  F   *** d   1      -5.868  -5.426   6.400  0.00  0.00    -0.165 F 
ATOM     25  F   *** d   1      -6.777  -4.638   8.129  0.00  0.00    -0.165 F 
ATOM     26  F   *** d   1      -7.270  -6.571   7.454  0.00  0.00    -0.165 F 
ENDBRANCH  20  23
ENDBRANCH  17  20
ENDBRANCH   3  17
TORSDOF 8
ENDMDL
MODEL 16
REMARK VINA RESULT:      -5.1      2.586      4.162
REMARK  8 active torsions:
REMARK  status: ('A' for Active; 'I' for Inactive)
REMARK    1  A    between atoms: O_16  and  C_25 
REMARK    2  A    between atoms: C_18  and  C_19 
REMARK    3  A    between atoms: C_18  and  C_20 
REMARK    4  A    between atoms: C_19  and  C_21 
REMARK    5  A    between atoms: C_20  and  C_22 
REMARK    6  A    between atoms: C_21  and  C_23 
REMARK    7  A    between atoms: C_22  and  C_24 
REMARK    8  A    between atoms: C_23  and  C_25 
ROOT
ATOM      1  F   *** d   1     -10.023  -3.370 -15.108  0.00  0.00    -0.192 F 
ATOM      2  F   *** d   1     -10.513  -1.362 -15.439  0.00  0.00    -0.192 F 
ATOM      3  C   *** d   1     -10.125  -2.203 -14.499  0.00  0.00     0.384 C 
ENDROOT
BRANCH   3   4
ATOM      4  C   *** d   1     -11.230  -2.305 -13.460  0.00  0.00     0.385 C 
ATOM      5  F   *** d   1     -11.067  -1.343 -12.571  0.00  0.00    -0.192 F 
ATOM      6  F   *** d   1     -11.064  -3.424 -12.778  0.00  0.00    -0.192 F 
BRANCH   4   7
ATOM      7  C   *** d   1     -12.665  -2.264 -13.951  0.00  0.00     0.388 C 
ATOM      8  F   *** d   1     -13.381  -3.158 -13.290  0.00  0.00    -0.192 F 
ATOM      9  F   *** d   1     -12.710  -2.666 -15.207  0.00  0.00    -0.192 F 
BRANCH   7  10
ATOM     10  C   *** d   1     -13.419  -0.956 -13.841  0.00  0.00     0.396 C 
ATOM     11  F   *** d   1     -12.604   0.064 -14.153  0.00  0.00    -0.187 F 
ATOM     12  F   *** d   1     -13.802  -0.767 -12.570  0.00  0.00    -0.187 F 
BRANCH  10  13
ATOM     13  C   *** d   1     -14.679  -0.929 -14.748  0.00  0.00     0.222 C 
ATOM     14  O   *** d   1     -14.702  -0.497 -15.883  0.00  0.00    -0.645 OA
BRANCH  13  15
ATOM     15  O   *** d   1     -15.750  -1.457 -14.112  0.00  0.00    -0.772 OA
ATOM     16  H   *** d   1     -16.301  -0.786 -13.679  0.00  0.00     0.167 HD
ENDBRANCH  13  15
ENDBRANCH  10  13
ENDBRANCH   7  10
ENDBRANCH   4   7
ENDBRANCH   3   4
BRANCH   3  17
ATOM     17  C   *** d   1      -8.743  -1.788 -14.021  0.00  0.00     0.387 C 
ATOM     18  F   *** d   1      -8.582  -2.207 -12.780  0.00  0.00    -0.192 F 
ATOM     19  F   *** d   1      -8.701  -0.471 -13.937  0.00  0.00    -0.192 F 
BRANCH  17  20
ATOM     20  C   *** d   1      -7.540  -2.246 -14.832  0.00  0.00     0.409 C 
ATOM     21  F   *** d   1      -7.528  -3.569 -14.854  0.00  0.00    -0.189 F 
ATOM     22  F   *** d   1      -6.441  -1.897 -14.182  0.00  0.00    -0.189 F 
BRANCH  20  23
ATOM     23  C   *** d   1      -7.436  -1.744 -16.250  0.00  0.00     0.461 C 
ATOM     24  F   *** d   1      -6.193  -1.684 -16.640  0.00  0.00    -0.165 F 
ATOM     25  F   *** d   1      -7.952  -0.551 -16.394  0.00  0.00    -0.165 F 
ATOM     26  F   *** d   1      -8.055  -2.540 -17.078  0.00  0.00    -0.165 F 
ENDBRANCH  20  23
ENDBRANCH  17  20
ENDBRANCH   3  17
TORSDOF 8
ENDMDL
MODEL 17
REMARK VINA RESULT:      -5.1     22.799     24.401
REMARK  8 active torsions:
REMARK  status: ('A' for Active; 'I' for Inactive)
REMARK    1  A    between atoms: O_16  and  C_25 
REMARK    2  A    between atoms: C_18  and  C_19 
REMARK    3  A    between atoms: C_18  and  C_20 
REMARK    4  A    between atoms: C_19  and  C_21 
REMARK    5  A    between atoms: C_20  and  C_22 
REMARK    6  A    between atoms: C_21  and  C_23 
REMARK    7  A    between atoms: C_22  and  C_24 
REMARK    8  A    between atoms: C_23  and  C_25 
ROOT
ATOM      1  F   *** d   1       9.240  11.684  -9.201  0.00  0.00    -0.192 F 
ATOM      2  F   *** d   1       8.129  11.004  -7.563  0.00  0.00    -0.192 F 
ATOM      3  C   *** d   1       8.629  12.098  -8.107  0.00  0.00     0.384 C 
ENDROOT
BRANCH   3   4
ATOM      4  C   *** d   1       9.677  12.667  -7.164  0.00  0.00     0.385 C 
ATOM      5  F   *** d   1       9.133  12.827  -5.972  0.00  0.00    -0.192 F 
ATOM      6  F   *** d   1       9.981  13.890  -7.562  0.00  0.00    -0.192 F 
BRANCH   4   7
ATOM      7  C   *** d   1      10.972  11.893  -6.999  0.00  0.00     0.388 C 
ATOM      8  F   *** d   1      10.718  10.597  -7.054  0.00  0.00    -0.192 F 
ATOM      9  F   *** d   1      11.445  12.087  -5.781  0.00  0.00    -0.192 F 
BRANCH   7  10
ATOM     10  C   *** d   1      12.086  12.148  -7.990  0.00  0.00     0.396 C 
ATOM     11  F   *** d   1      11.600  12.797  -9.060  0.00  0.00    -0.187 F 
ATOM     12  F   *** d   1      12.565  10.977  -8.434  0.00  0.00    -0.187 F 
BRANCH  10  13
ATOM     13  C   *** d   1      13.254  12.955  -7.362  0.00  0.00     0.222 C 
ATOM     14  O   *** d   1      14.242  12.460  -6.859  0.00  0.00    -0.645 OA
BRANCH  13  15
ATOM     15  O   *** d   1      13.033  14.287  -7.453  0.00  0.00    -0.772 OA
ATOM     16  H   *** d   1      13.771  14.817  -7.113  0.00  0.00     0.167 HD
ENDBRANCH  13  15
ENDBRANCH  10  13
ENDBRANCH   7  10
ENDBRANCH   4   7
ENDBRANCH   3   4
BRANCH   3  17
ATOM     17  C   *** d   1       7.477  13.004  -8.512  0.00  0.00     0.387 C 
ATOM     18  F   *** d   1       7.338  13.944  -7.596  0.00  0.00    -0.192 F 
ATOM     19  F   *** d   1       6.354  12.313  -8.456  0.00  0.00    -0.192 F 
BRANCH  17  20
ATOM     20  C   *** d   1       7.547  13.680  -9.873  0.00  0.00     0.409 C 
ATOM     21  F   *** d   1       8.732  14.256  -9.996  0.00  0.00    -0.189 F 
ATOM     22  F   *** d   1       6.673  14.674  -9.891  0.00  0.00    -0.189 F 
BRANCH  20  23
ATOM     23  C   *** d   1       7.310  12.813 -11.084  0.00  0.00     0.461 C 
ATOM     24  F   *** d   1       6.321  13.267 -11.803  0.00  0.00    -0.165 F 
ATOM     25  F   *** d   1       7.029  11.578 -10.763  0.00  0.00    -0.165 F 
ATOM     26  F   *** d   1       8.360  12.788 -11.858  0.00  0.00    -0.165 F 
ENDBRANCH  20  23
ENDBRANCH  17  20
ENDBRANCH   3  17
TORSDOF 8
ENDMDL
MODEL 18
REMARK VINA RESULT:      -5.0     17.110     18.621
REMARK  8 active torsions:
REMARK  status: ('A' for Active; 'I' for Inactive)
REMARK    1  A    between atoms: O_16  and  C_25 
REMARK    2  A    between atoms: C_18  and  C_19 
REMARK    3  A    between atoms: C_18  and  C_20 
REMARK    4  A    between atoms: C_19  and  C_21 
REMARK    5  A    between atoms: C_20  and  C_22 
REMARK    6  A    between atoms: C_21  and  C_23 
REMARK    7  A    between atoms: C_22  and  C_24 
REMARK    8  A    between atoms: C_23  and  C_25 
ROOT
ATOM      1  F   *** d   1      -3.263 -11.477  -0.889  0.00  0.00    -0.192 F 
ATOM      2  F   *** d   1      -2.966  -9.746   0.250  0.00  0.00    -0.192 F 
ATOM      3  C   *** d   1      -2.674 -11.033   0.206  0.00  0.00     0.384 C 
ENDROOT
BRANCH   3   4
ATOM      4  C   *** d   1      -3.322 -11.713   1.402  0.00  0.00     0.385 C 
ATOM      5  F   *** d   1      -3.129 -10.964   2.472  0.00  0.00    -0.192 F 
ATOM      6  F   *** d   1      -2.668 -12.833   1.653  0.00  0.00    -0.192 F 
BRANCH   4   7
ATOM      7  C   *** d   1      -4.800 -12.044   1.310  0.00  0.00     0.388 C 
ATOM      8  F   *** d   1      -5.195 -12.605   2.441  0.00  0.00    -0.192 F 
ATOM      9  F   *** d   1      -4.983 -12.977   0.395  0.00  0.00    -0.192 F 
BRANCH   7  10
ATOM     10  C   *** d   1      -5.768 -10.912   1.040  0.00  0.00     0.396 C 
ATOM     11  F   *** d   1      -5.752 -10.606  -0.266  0.00  0.00    -0.187 F 
ATOM     12  F   *** d   1      -5.367  -9.816   1.698  0.00  0.00    -0.187 F 
BRANCH  10  13
ATOM     13  C   *** d   1      -7.213 -11.260   1.490  0.00  0.00     0.222 C 
ATOM     14  O   *** d   1      -7.923 -12.085   0.951  0.00  0.00    -0.645 OA
BRANCH  13  15
ATOM     15  O   *** d   1      -7.579 -10.526   2.566  0.00  0.00    -0.772 OA
ATOM     16  H   *** d   1      -6.899 -10.504   3.258  0.00  0.00     0.167 HD
ENDBRANCH  13  15
ENDBRANCH  10  13
ENDBRANCH   7  10
ENDBRANCH   4   7
ENDBRANCH   3   4
BRANCH   3  17
ATOM     17  C   *** d   1      -1.170 -11.181   0.039  0.00  0.00     0.387 C 
ATOM     18  F   *** d   1      -0.634 -11.403   1.224  0.00  0.00    -0.192 F 
ATOM     19  F   *** d   1      -0.670 -10.020  -0.343  0.00  0.00    -0.192 F 
BRANCH  17  20
ATOM     20  C   *** d   1      -0.661 -12.249  -0.916  0.00  0.00     0.409 C 
ATOM     21  F   *** d   1      -1.535 -13.243  -0.939  0.00  0.00    -0.189 F 
ATOM     22  F   *** d   1       0.446 -12.769  -0.409  0.00  0.00    -0.189 F 
BRANCH  20  23
ATOM     23  C   *** d   1      -0.382 -11.826  -2.336  0.00  0.00     0.461 C 
ATOM     24  F   *** d   1       0.598 -10.967  -2.389  0.00  0.00    -0.165 F 
ATOM     25  F   *** d   1      -1.422 -11.271  -2.902  0.00  0.00    -0.165 F 
ATOM     26  F   *** d   1      -0.033 -12.845  -3.072  0.00  0.00    -0.165 F 
ENDBRANCH  20  23
ENDBRANCH  17  20
ENDBRANCH   3  17
TORSDOF 8
ENDMDL
MODEL 19
REMARK VINA RESULT:      -5.0     22.215     23.736
REMARK  8 active torsions:
REMARK  status: ('A' for Active; 'I' for Inactive)
REMARK    1  A    between atoms: O_16  and  C_25 
REMARK    2  A    between atoms: C_18  and  C_19 
REMARK    3  A    between atoms: C_18  and  C_20 
REMARK    4  A    between atoms: C_19  and  C_21 
REMARK    5  A    between atoms: C_20  and  C_22 
REMARK    6  A    between atoms: C_21  and  C_23 
REMARK    7  A    between atoms: C_22  and  C_24 
REMARK    8  A    between atoms: C_23  and  C_25 
ROOT
ATOM      1  F   *** d   1       9.096  11.442  -8.519  0.00  0.00    -0.192 F 
ATOM      2  F   *** d   1       9.861  13.318  -9.045  0.00  0.00    -0.192 F 
ATOM      3  C   *** d   1       8.971  12.731  -8.266  0.00  0.00     0.384 C 
ENDROOT
BRANCH   3   4
ATOM      4  C   *** d   1       7.584  13.169  -8.708  0.00  0.00     0.385 C 
ATOM      5  F   *** d   1       7.213  14.204  -7.976  0.00  0.00    -0.192 F 
ATOM      6  F   *** d   1       6.724  12.214  -8.401  0.00  0.00    -0.192 F 
BRANCH   4   7
ATOM      7  C   *** d   1       7.388  13.523 -10.170  0.00  0.00     0.388 C 
ATOM      8  F   *** d   1       8.358  14.333 -10.559  0.00  0.00    -0.192 F 
ATOM      9  F   *** d   1       6.286  14.238 -10.303  0.00  0.00    -0.192 F 
BRANCH   7  10
ATOM     10  C   *** d   1       7.350  12.394 -11.178  0.00  0.00     0.396 C 
ATOM     11  F   *** d   1       6.291  12.546 -11.987  0.00  0.00    -0.187 F 
ATOM     12  F   *** d   1       7.181  11.230 -10.536  0.00  0.00    -0.187 F 
BRANCH  10  13
ATOM     13  C   *** d   1       8.655  12.314 -12.015  0.00  0.00     0.222 C 
ATOM     14  O   *** d   1       9.688  11.801 -11.634  0.00  0.00    -0.645 OA
BRANCH  13  15
ATOM     15  O   *** d   1       8.492  12.886 -13.230  0.00  0.00    -0.772 OA
ATOM     16  H   *** d   1       8.032  13.739 -13.188  0.00  0.00     0.167 HD
ENDBRANCH  13  15
ENDBRANCH  10  13
ENDBRANCH   7  10
ENDBRANCH   4   7
ENDBRANCH   3   4
BRANCH   3  17
ATOM     17  C   *** d   1       9.362  12.978  -6.818  0.00  0.00     0.387 C 
ATOM     18  F   *** d   1       8.268  12.973  -6.079  0.00  0.00    -0.192 F 
ATOM     19  F   *** d   1       9.833  14.207  -6.709  0.00  0.00    -0.192 F 
BRANCH  17  20
ATOM     20  C   *** d   1      10.366  12.031  -6.179  0.00  0.00     0.409 C 
ATOM     21  F   *** d   1      11.160  12.734  -5.387  0.00  0.00    -0.189 F 
ATOM     22  F   *** d   1      11.153  11.554  -7.129  0.00  0.00    -0.189 F 
BRANCH  20  23
ATOM     23  C   *** d   1       9.811  10.871  -5.391  0.00  0.00     0.461 C 
ATOM     24  F   *** d   1      10.692   9.918  -5.271  0.00  0.00    -0.165 F 
ATOM     25  F   *** d   1       8.747  10.356  -5.948  0.00  0.00    -0.165 F 
ATOM     26  F   *** d   1       9.482  11.237  -4.182  0.00  0.00    -0.165 F 
ENDBRANCH  20  23
ENDBRANCH  17  20
ENDBRANCH   3  17
TORSDOF 8
ENDMDL
MODEL 20
REMARK VINA RESULT:      -5.0     22.324     23.759
REMARK  8 active torsions:
REMARK  status: ('A' for Active; 'I' for Inactive)
REMARK    1  A    between atoms: O_16  and  C_25 
REMARK    2  A    between atoms: C_18  and  C_19 
REMARK    3  A    between atoms: C_18  and  C_20 
REMARK    4  A    between atoms: C_19  and  C_21 
REMARK    5  A    between atoms: C_20  and  C_22 
REMARK    6  A    between atoms: C_21  and  C_23 
REMARK    7  A    between atoms: C_22  and  C_24 
REMARK    8  A    between atoms: C_23  and  C_25 
ROOT
ATOM      1  F   *** d   1       6.378  12.161  -8.407  0.00  0.00    -0.192 F 
ATOM      2  F   *** d   1       7.218  13.853  -7.507  0.00  0.00    -0.192 F 
ATOM      3  C   *** d   1       7.458  12.920  -8.409  0.00  0.00     0.384 C 
ENDROOT
BRANCH   3   4
ATOM      4  C   *** d   1       8.630  12.078  -7.930  0.00  0.00     0.385 C 
ATOM      5  F   *** d   1       9.347  11.714  -8.977  0.00  0.00    -0.192 F 
ATOM      6  F   *** d   1       8.160  10.948  -7.434  0.00  0.00    -0.192 F 
BRANCH   4   7
ATOM      7  C   *** d   1       9.563  12.689  -6.901  0.00  0.00     0.388 C 
ATOM      8  F   *** d   1       8.960  12.719  -5.725  0.00  0.00    -0.192 F 
ATOM      9  F   *** d   1       9.773  13.958  -7.199  0.00  0.00    -0.192 F 
BRANCH   7  10
ATOM     10  C   *** d   1      10.903  12.025  -6.671  0.00  0.00     0.396 C 
ATOM     11  F   *** d   1      11.718  12.279  -7.706  0.00  0.00    -0.187 F 
ATOM     12  F   *** d   1      10.740  10.695  -6.627  0.00  0.00    -0.187 F 
BRANCH  10  13
ATOM     13  C   *** d   1      11.565  12.487  -5.344  0.00  0.00     0.222 C 
ATOM     14  O   *** d   1      11.418  11.935  -4.272  0.00  0.00    -0.645 OA
BRANCH  13  15
ATOM     15  O   *** d   1      12.334  13.583  -5.538  0.00  0.00    -0.772 OA
ATOM     16  H   *** d   1      12.344  14.178  -4.771  0.00  0.00     0.167 HD
ENDBRANCH  13  15
ENDBRANCH  10  13
ENDBRANCH   7  10
ENDBRANCH   4   7
ENDBRANCH   3   4
BRANCH   3  17
ATOM     17  C   *** d   1       7.577  13.585  -9.771  0.00  0.00     0.387 C 
ATOM     18  F   *** d   1       8.759  14.166  -9.854  0.00  0.00    -0.192 F 
ATOM     19  F   *** d   1       6.710  14.579  -9.834  0.00  0.00    -0.192 F 
BRANCH  17  20
ATOM     20  C   *** d   1       7.391  12.718 -11.007  0.00  0.00     0.409 C 
ATOM     21  F   *** d   1       6.329  13.151 -11.667  0.00  0.00    -0.189 F 
ATOM     22  F   *** d   1       7.083  11.492 -10.615  0.00  0.00    -0.189 F 
BRANCH  20  23
ATOM     23  C   *** d   1       8.549  12.635 -11.969  0.00  0.00     0.461 C 
ATOM     24  F   *** d   1       9.612  13.210 -11.478  0.00  0.00    -0.165 F 
ATOM     25  F   *** d   1       8.286  13.208 -13.114  0.00  0.00    -0.165 F 
ATOM     26  F   *** d   1       8.869  11.395 -12.215  0.00  0.00    -0.165 F 
ENDBRANCH  20  23
ENDBRANCH  17  20
ENDBRANCH   3  17
TORSDOF 8
ENDMDL
