MODEL 1
REMARK VINA RESULT:      -7.5      0.000      0.000
REMARK  8 active torsions:
REMARK  status: ('A' for Active; 'I' for Inactive)
REMARK    1  A    between atoms: O_16  and  C_25 
REMARK    2  A    between atoms: C_18  and  C_19 
REMARK    3  A    between atoms: C_18  and  C_20 
REMARK    4  A    between atoms: C_19  and  C_21 
REMARK    5  A    between atoms: C_20  and  C_22 
REMARK    6  A    between atoms: C_21  and  C_23 
REMARK    7  A    between atoms: C_22  and  C_24 
REMARK    8  A    between atoms: C_23  and  C_25 
ROOT
ATOM      1  F   *** d   1       5.364  14.741   0.393  0.00  0.00    -0.192 F 
ATOM      2  F   *** d   1       7.036  13.930   1.355  0.00  0.00    -0.192 F 
ATOM      3  C   *** d   1       6.428  13.988   0.184  0.00  0.00     0.384 C 
ENDROOT
BRANCH   3   4
ATOM      4  C   *** d   1       5.956  12.590  -0.181  0.00  0.00     0.385 C 
ATOM      5  F   *** d   1       6.905  11.727   0.131  0.00  0.00    -0.192 F 
ATOM      6  F   *** d   1       5.850  12.513  -1.496  0.00  0.00    -0.192 F 
BRANCH   4   7
ATOM      7  C   *** d   1       4.651  12.105   0.423  0.00  0.00     0.388 C 
ATOM      8  F   *** d   1       3.637  12.653  -0.225  0.00  0.00    -0.192 F 
ATOM      9  F   *** d   1       4.543  12.563   1.657  0.00  0.00    -0.192 F 
BRANCH   7  10
ATOM     10  C   *** d   1       4.384  10.615   0.441  0.00  0.00     0.396 C 
ATOM     11  F   *** d   1       4.924  10.045  -0.648  0.00  0.00    -0.187 F 
ATOM     12  F   *** d   1       3.063  10.398   0.374  0.00  0.00    -0.187 F 
BRANCH  10  13
ATOM     13  C   *** d   1       4.934   9.938   1.726  0.00  0.00     0.222 C 
ATOM     14  O   *** d   1       6.051   9.474   1.836  0.00  0.00    -0.645 OA
BRANCH  13  15
ATOM     15  O   *** d   1       4.008   9.938   2.712  0.00  0.00    -0.772 OA
ATOM     16  H   *** d   1       3.792   9.047   3.028  0.00  0.00     0.167 HD
ENDBRANCH  13  15
ENDBRANCH  10  13
ENDBRANCH   7  10
ENDBRANCH   4   7
ENDBRANCH   3   4
BRANCH   3  17
ATOM     17  C   *** d   1       7.341  14.705  -0.797  0.00  0.00     0.387 C 
ATOM     18  F   *** d   1       6.865  14.534  -2.017  0.00  0.00    -0.192 F 
ATOM     19  F   *** d   1       8.513  14.097  -0.808  0.00  0.00    -0.192 F 
BRANCH  17  20
ATOM     20  C   *** d   1       7.583  16.192  -0.590  0.00  0.00     0.409 C 
ATOM     21  F   *** d   1       8.874  16.433  -0.752  0.00  0.00    -0.189 F 
ATOM     22  F   *** d   1       7.328  16.484   0.675  0.00  0.00    -0.189 F 
BRANCH  20  23
ATOM     23  C   *** d   1       6.806  17.143  -1.466  0.00  0.00     0.461 C 
ATOM     24  F   *** d   1       6.717  18.323  -0.918  0.00  0.00    -0.165 F 
ATOM     25  F   *** d   1       5.589  16.724  -1.698  0.00  0.00    -0.165 F 
ATOM     26  F   *** d   1       7.391  17.305  -2.621  0.00  0.00    -0.165 F 
ENDBRANCH  20  23
ENDBRANCH  17  20
ENDBRANCH   3  17
TORSDOF 8
ENDMDL
MODEL 2
REMARK VINA RESULT:      -7.5      1.317      2.515
REMARK  8 active torsions:
REMARK  status: ('A' for Active; 'I' for Inactive)
REMARK    1  A    between atoms: O_16  and  C_25 
REMARK    2  A    between atoms: C_18  and  C_19 
REMARK    3  A    between atoms: C_18  and  C_20 
REMARK    4  A    between atoms: C_19  and  C_21 
REMARK    5  A    between atoms: C_20  and  C_22 
REMARK    6  A    between atoms: C_21  and  C_23 
REMARK    7  A    between atoms: C_22  and  C_24 
REMARK    8  A    between atoms: C_23  and  C_25 
ROOT
ATOM      1  F   *** d   1       8.081  12.819  -0.271  0.00  0.00    -0.192 F 
ATOM      2  F   *** d   1       6.613  13.217  -1.709  0.00  0.00    -0.192 F 
ATOM      3  C   *** d   1       6.878  13.342  -0.422  0.00  0.00     0.384 C 
ENDROOT
BRANCH   3   4
ATOM      4  C   *** d   1       5.889  12.489   0.357  0.00  0.00     0.385 C 
ATOM      5  F   *** d   1       4.677  12.982   0.184  0.00  0.00    -0.192 F 
ATOM      6  F   *** d   1       6.132  12.637   1.647  0.00  0.00    -0.192 F 
BRANCH   4   7
ATOM      7  C   *** d   1       5.849  11.003   0.055  0.00  0.00     0.388 C 
ATOM      8  F   *** d   1       7.058  10.592  -0.289  0.00  0.00    -0.192 F 
ATOM      9  F   *** d   1       5.109  10.794  -1.019  0.00  0.00    -0.192 F 
BRANCH   7  10
ATOM     10  C   *** d   1       5.380  10.066   1.148  0.00  0.00     0.396 C 
ATOM     11  F   *** d   1       6.184  10.177   2.216  0.00  0.00    -0.187 F 
ATOM     12  F   *** d   1       5.478   8.799   0.721  0.00  0.00    -0.187 F 
BRANCH  10  13
ATOM     13  C   *** d   1       3.907  10.338   1.558  0.00  0.00     0.222 C 
ATOM     14  O   *** d   1       2.957  10.265   0.805  0.00  0.00    -0.645 OA
BRANCH  13  15
ATOM     15  O   *** d   1       3.817  10.661   2.869  0.00  0.00    -0.772 OA
ATOM     16  H   *** d   1       3.165  10.124   3.347  0.00  0.00     0.167 HD
ENDBRANCH  13  15
ENDBRANCH  10  13
ENDBRANCH   7  10
ENDBRANCH   4   7
ENDBRANCH   3   4
BRANCH   3  17
ATOM     17  C   *** d   1       6.951  14.823  -0.086  0.00  0.00     0.387 C 
ATOM     18  F   *** d   1       7.582  14.963   1.065  0.00  0.00    -0.192 F 
ATOM     19  F   *** d   1       5.729  15.266   0.146  0.00  0.00    -0.192 F 
BRANCH  17  20
ATOM     20  C   *** d   1       7.605  15.752  -1.097  0.00  0.00     0.409 C 
ATOM     21  F   *** d   1       6.834  15.813  -2.170  0.00  0.00    -0.189 F 
ATOM     22  F   *** d   1       8.733  15.195  -1.508  0.00  0.00    -0.189 F 
BRANCH  20  23
ATOM     23  C   *** d   1       7.905  17.159  -0.644  0.00  0.00     0.461 C 
ATOM     24  F   *** d   1       7.071  17.544   0.282  0.00  0.00    -0.165 F 
ATOM     25  F   *** d   1       7.832  18.022  -1.623  0.00  0.00    -0.165 F 
ATOM     26  F   *** d   1       9.103  17.244  -0.134  0.00  0.00    -0.165 F 
ENDBRANCH  20  23
ENDBRANCH  17  20
ENDBRANCH   3  17
TORSDOF 8
ENDMDL
MODEL 3
REMARK VINA RESULT:      -7.4      2.862      6.009
REMARK  8 active torsions:
REMARK  status: ('A' for Active; 'I' for Inactive)
REMARK    1  A    between atoms: O_16  and  C_25 
REMARK    2  A    between atoms: C_18  and  C_19 
REMARK    3  A    between atoms: C_18  and  C_20 
REMARK    4  A    between atoms: C_19  and  C_21 
REMARK    5  A    between atoms: C_20  and  C_22 
REMARK    6  A    between atoms: C_21  and  C_23 
REMARK    7  A    between atoms: C_22  and  C_24 
REMARK    8  A    between atoms: C_23  and  C_25 
ROOT
ATOM      1  F   *** d   1       7.173  13.800   1.974  0.00  0.00    -0.192 F 
ATOM      2  F   *** d   1       5.409  14.300   0.964  0.00  0.00    -0.192 F 
ATOM      3  C   *** d   1       6.449  13.489   0.914  0.00  0.00     0.384 C 
ENDROOT
BRANCH   3   4
ATOM      4  C   *** d   1       7.260  13.825  -0.329  0.00  0.00     0.385 C 
ATOM      5  F   *** d   1       6.644  13.324  -1.384  0.00  0.00    -0.192 F 
ATOM      6  F   *** d   1       8.408  13.175  -0.269  0.00  0.00    -0.192 F 
BRANCH   4   7
ATOM      7  C   *** d   1       7.562  15.287  -0.600  0.00  0.00     0.388 C 
ATOM      8  F   *** d   1       8.781  15.397  -1.100  0.00  0.00    -0.192 F 
ATOM      9  F   *** d   1       7.612  15.943   0.544  0.00  0.00    -0.192 F 
BRANCH   7  10
ATOM     10  C   *** d   1       6.649  16.040  -1.544  0.00  0.00     0.396 C 
ATOM     11  F   *** d   1       5.369  15.740  -1.271  0.00  0.00    -0.187 F 
ATOM     12  F   *** d   1       6.879  15.639  -2.802  0.00  0.00    -0.187 F 
BRANCH  10  13
ATOM     13  C   *** d   1       6.865  17.576  -1.465  0.00  0.00     0.222 C 
ATOM     14  O   *** d   1       7.952  18.117  -1.431  0.00  0.00    -0.645 OA
BRANCH  13  15
ATOM     15  O   *** d   1       5.685  18.235  -1.447  0.00  0.00    -0.772 OA
ATOM     16  H   *** d   1       4.919  17.644  -1.528  0.00  0.00     0.167 HD
ENDBRANCH  13  15
ENDBRANCH  10  13
ENDBRANCH   7  10
ENDBRANCH   4   7
ENDBRANCH   3   4
BRANCH   3  17
ATOM     17  C   *** d   1       5.955  12.061   1.070  0.00  0.00     0.387 C 
ATOM     18  F   *** d   1       6.161  11.677   2.316  0.00  0.00    -0.192 F 
ATOM     19  F   *** d   1       6.721  11.266   0.345  0.00  0.00    -0.192 F 
BRANCH  17  20
ATOM     20  C   *** d   1       4.505  11.765   0.720  0.00  0.00     0.409 C 
ATOM     21  F   *** d   1       4.181  12.468  -0.353  0.00  0.00    -0.189 F 
ATOM     22  F   *** d   1       3.738  12.235   1.691  0.00  0.00    -0.189 F 
BRANCH  20  23
ATOM     23  C   *** d   1       4.137  10.323   0.477  0.00  0.00     0.461 C 
ATOM     24  F   *** d   1       4.591   9.908  -0.673  0.00  0.00    -0.165 F 
ATOM     25  F   *** d   1       2.844  10.133   0.480  0.00  0.00    -0.165 F 
ATOM     26  F   *** d   1       4.650   9.545   1.390  0.00  0.00    -0.165 F 
ENDBRANCH  20  23
ENDBRANCH  17  20
ENDBRANCH   3  17
TORSDOF 8
ENDMDL
MODEL 4
REMARK VINA RESULT:      -7.4      1.285      2.526
REMARK  8 active torsions:
REMARK  status: ('A' for Active; 'I' for Inactive)
REMARK    1  A    between atoms: O_16  and  C_25 
REMARK    2  A    between atoms: C_18  and  C_19 
REMARK    3  A    between atoms: C_18  and  C_20 
REMARK    4  A    between atoms: C_19  and  C_21 
REMARK    5  A    between atoms: C_20  and  C_22 
REMARK    6  A    between atoms: C_21  and  C_23 
REMARK    7  A    between atoms: C_22  and  C_24 
REMARK    8  A    between atoms: C_23  and  C_25 
ROOT
ATOM      1  F   *** d   1       7.658  12.384  -0.097  0.00  0.00    -0.192 F 
ATOM      2  F   *** d   1       6.384  13.320  -1.469  0.00  0.00    -0.192 F 
ATOM      3  C   *** d   1       6.904  13.455  -0.263  0.00  0.00     0.384 C 
ENDROOT
BRANCH   3   4
ATOM      4  C   *** d   1       5.776  13.405   0.755  0.00  0.00     0.385 C 
ATOM      5  F   *** d   1       5.412  14.640   1.046  0.00  0.00    -0.192 F 
ATOM      6  F   *** d   1       6.253  12.919   1.887  0.00  0.00    -0.192 F 
BRANCH   4   7
ATOM      7  C   *** d   1       4.533  12.613   0.393  0.00  0.00     0.388 C 
ATOM      8  F   *** d   1       4.883  11.393   0.022  0.00  0.00    -0.192 F 
ATOM      9  F   *** d   1       3.977  13.140  -0.682  0.00  0.00    -0.192 F 
BRANCH   7  10
ATOM     10  C   *** d   1       3.464  12.442   1.450  0.00  0.00     0.396 C 
ATOM     11  F   *** d   1       2.256  12.671   0.912  0.00  0.00    -0.187 F 
ATOM     12  F   *** d   1       3.637  13.359   2.412  0.00  0.00    -0.187 F 
BRANCH  10  13
ATOM     13  C   *** d   1       3.501  11.031   2.097  0.00  0.00     0.222 C 
ATOM     14  O   *** d   1       4.366  10.644   2.856  0.00  0.00    -0.645 OA
BRANCH  13  15
ATOM     15  O   *** d   1       2.438  10.289   1.712  0.00  0.00    -0.772 OA
ATOM     16  H   *** d   1       1.599  10.774   1.761  0.00  0.00     0.167 HD
ENDBRANCH  13  15
ENDBRANCH  10  13
ENDBRANCH   7  10
ENDBRANCH   4   7
ENDBRANCH   3   4
BRANCH   3  17
ATOM     17  C   *** d   1       7.803  14.681  -0.261  0.00  0.00     0.387 C 
ATOM     18  F   *** d   1       9.009  14.321  -0.658  0.00  0.00    -0.192 F 
ATOM     19  F   *** d   1       7.968  15.084   0.986  0.00  0.00    -0.192 F 
BRANCH  17  20
ATOM     20  C   *** d   1       7.374  15.882  -1.090  0.00  0.00     0.409 C 
ATOM     21  F   *** d   1       6.052  15.906  -1.141  0.00  0.00    -0.189 F 
ATOM     22  F   *** d   1       7.768  15.688  -2.339  0.00  0.00    -0.189 F 
BRANCH  20  23
ATOM     23  C   *** d   1       7.860  17.237  -0.641  0.00  0.00     0.461 C 
ATOM     24  F   *** d   1       7.755  18.117  -1.598  0.00  0.00    -0.165 F 
ATOM     25  F   *** d   1       9.110  17.215  -0.261  0.00  0.00    -0.165 F 
ATOM     26  F   *** d   1       7.153  17.682   0.361  0.00  0.00    -0.165 F 
ENDBRANCH  20  23
ENDBRANCH  17  20
ENDBRANCH   3  17
TORSDOF 8
ENDMDL
MODEL 5
REMARK VINA RESULT:      -7.3      2.535      5.881
REMARK  8 active torsions:
REMARK  status: ('A' for Active; 'I' for Inactive)
REMARK    1  A    between atoms: O_16  and  C_25 
REMARK    2  A    between atoms: C_18  and  C_19 
REMARK    3  A    between atoms: C_18  and  C_20 
REMARK    4  A    between atoms: C_19  and  C_21 
REMARK    5  A    between atoms: C_20  and  C_22 
REMARK    6  A    between atoms: C_21  and  C_23 
REMARK    7  A    between atoms: C_22  and  C_24 
REMARK    8  A    between atoms: C_23  and  C_25 
ROOT
ATOM      1  F   *** d   1       7.350  11.627   1.996  0.00  0.00    -0.192 F 
ATOM      2  F   *** d   1       5.606  12.782   1.927  0.00  0.00    -0.192 F 
ATOM      3  C   *** d   1       6.567  12.293   1.166  0.00  0.00     0.384 C 
ENDROOT
BRANCH   3   4
ATOM      4  C   *** d   1       7.363  13.454   0.591  0.00  0.00     0.385 C 
ATOM      5  F   *** d   1       7.787  13.121  -0.614  0.00  0.00    -0.192 F 
ATOM      6  F   *** d   1       8.463  13.604   1.307  0.00  0.00    -0.192 F 
BRANCH   4   7
ATOM      7  C   *** d   1       6.676  14.803   0.500  0.00  0.00     0.388 C 
ATOM      8  F   *** d   1       6.513  15.296   1.716  0.00  0.00    -0.192 F 
ATOM      9  F   *** d   1       5.448  14.640   0.042  0.00  0.00    -0.192 F 
BRANCH   7  10
ATOM     10  C   *** d   1       7.347  15.892  -0.310  0.00  0.00     0.396 C 
ATOM     11  F   *** d   1       8.620  15.549  -0.561  0.00  0.00    -0.187 F 
ATOM     12  F   *** d   1       7.386  17.022   0.409  0.00  0.00    -0.187 F 
BRANCH  10  13
ATOM     13  C   *** d   1       6.598  16.176  -1.641  0.00  0.00     0.222 C 
ATOM     14  O   *** d   1       5.918  17.159  -1.852  0.00  0.00    -0.645 OA
BRANCH  13  15
ATOM     15  O   *** d   1       6.807  15.186  -2.540  0.00  0.00    -0.772 OA
ATOM     16  H   *** d   1       6.018  14.643  -2.695  0.00  0.00     0.167 HD
ENDBRANCH  13  15
ENDBRANCH  10  13
ENDBRANCH   7  10
ENDBRANCH   4   7
ENDBRANCH   3   4
BRANCH   3  17
ATOM     17  C   *** d   1       5.952  11.305   0.188  0.00  0.00     0.387 C 
ATOM     18  F   *** d   1       6.917  10.575  -0.338  0.00  0.00    -0.192 F 
ATOM     19  F   *** d   1       5.447  11.976  -0.830  0.00  0.00    -0.192 F 
BRANCH  17  20
ATOM     20  C   *** d   1       4.879  10.361   0.709  0.00  0.00     0.409 C 
ATOM     21  F   *** d   1       5.278   9.873   1.872  0.00  0.00    -0.189 F 
ATOM     22  F   *** d   1       4.811   9.318  -0.103  0.00  0.00    -0.189 F 
BRANCH  20  23
ATOM     23  C   *** d   1       3.491  10.925   0.878  0.00  0.00     0.461 C 
ATOM     24  F   *** d   1       3.256  11.234   2.123  0.00  0.00    -0.165 F 
ATOM     25  F   *** d   1       2.563  10.085   0.499  0.00  0.00    -0.165 F 
ATOM     26  F   *** d   1       3.338  12.018   0.182  0.00  0.00    -0.165 F 
ENDBRANCH  20  23
ENDBRANCH  17  20
ENDBRANCH   3  17
TORSDOF 8
ENDMDL
MODEL 6
REMARK VINA RESULT:      -6.8      1.467      2.197
REMARK  8 active torsions:
REMARK  status: ('A' for Active; 'I' for Inactive)
REMARK    1  A    between atoms: O_16  and  C_25 
REMARK    2  A    between atoms: C_18  and  C_19 
REMARK    3  A    between atoms: C_18  and  C_20 
REMARK    4  A    between atoms: C_19  and  C_21 
REMARK    5  A    between atoms: C_20  and  C_22 
REMARK    6  A    between atoms: C_21  and  C_23 
REMARK    7  A    between atoms: C_22  and  C_24 
REMARK    8  A    between atoms: C_23  and  C_25 
ROOT
ATOM      1  F   *** d   1       5.035  14.301   0.695  0.00  0.00    -0.192 F 
ATOM      2  F   *** d   1       6.933  14.052   1.540  0.00  0.00    -0.192 F 
ATOM      3  C   *** d   1       6.263  13.906   0.412  0.00  0.00     0.384 C 
ENDROOT
BRANCH   3   4
ATOM      4  C   *** d   1       6.218  12.425   0.068  0.00  0.00     0.385 C 
ATOM      5  F   *** d   1       7.442  12.018  -0.210  0.00  0.00    -0.192 F 
ATOM      6  F   *** d   1       5.549  12.276  -1.061  0.00  0.00    -0.192 F 
BRANCH   4   7
ATOM      7  C   *** d   1       5.621  11.480   1.095  0.00  0.00     0.388 C 
ATOM      8  F   *** d   1       5.128  12.181   2.102  0.00  0.00    -0.192 F 
ATOM      9  F   *** d   1       6.584  10.756   1.635  0.00  0.00    -0.192 F 
BRANCH   7  10
ATOM     10  C   *** d   1       4.516  10.549   0.647  0.00  0.00     0.396 C 
ATOM     11  F   *** d   1       4.563   9.414   1.362  0.00  0.00    -0.187 F 
ATOM     12  F   *** d   1       4.713  10.206  -0.633  0.00  0.00    -0.187 F 
BRANCH  10  13
ATOM     13  C   *** d   1       3.113  11.202   0.775  0.00  0.00     0.222 C 
ATOM     14  O   *** d   1       2.759  12.197   0.176  0.00  0.00    -0.645 OA
BRANCH  13  15
ATOM     15  O   *** d   1       2.330  10.514   1.638  0.00  0.00    -0.772 OA
ATOM     16  H   *** d   1       1.471  10.270   1.257  0.00  0.00     0.167 HD
ENDBRANCH  13  15
ENDBRANCH  10  13
ENDBRANCH   7  10
ENDBRANCH   4   7
ENDBRANCH   3   4
BRANCH   3  17
ATOM     17  C   *** d   1       6.847  14.854  -0.622  0.00  0.00     0.387 C 
ATOM     18  F   *** d   1       6.032  15.883  -0.759  0.00  0.00    -0.192 F 
ATOM     19  F   *** d   1       6.833  14.257  -1.800  0.00  0.00    -0.192 F 
BRANCH  17  20
ATOM     20  C   *** d   1       8.249  15.393  -0.384  0.00  0.00     0.409 C 
ATOM     21  F   *** d   1       8.883  15.441  -1.545  0.00  0.00    -0.189 F 
ATOM     22  F   *** d   1       8.917  14.511   0.343  0.00  0.00    -0.189 F 
BRANCH  20  23
ATOM     23  C   *** d   1       8.363  16.743   0.278  0.00  0.00     0.461 C 
ATOM     24  F   *** d   1       8.225  17.707  -0.588  0.00  0.00    -0.165 F 
ATOM     25  F   *** d   1       9.516  16.909   0.872  0.00  0.00    -0.165 F 
ATOM     26  F   *** d   1       7.433  16.906   1.178  0.00  0.00    -0.165 F 
ENDBRANCH  20  23
ENDBRANCH  17  20
ENDBRANCH   3  17
TORSDOF 8
ENDMDL
MODEL 7
REMARK VINA RESULT:      -6.8      2.572      5.976
REMARK  8 active torsions:
REMARK  status: ('A' for Active; 'I' for Inactive)
REMARK    1  A    between atoms: O_16  and  C_25 
REMARK    2  A    between atoms: C_18  and  C_19 
REMARK    3  A    between atoms: C_18  and  C_20 
REMARK    4  A    between atoms: C_19  and  C_21 
REMARK    5  A    between atoms: C_20  and  C_22 
REMARK    6  A    between atoms: C_21  and  C_23 
REMARK    7  A    between atoms: C_22  and  C_24 
REMARK    8  A    between atoms: C_23  and  C_25 
ROOT
ATOM      1  F   *** d   1       6.007  13.813   1.858  0.00  0.00    -0.192 F 
ATOM      2  F   *** d   1       5.202  14.391   0.014  0.00  0.00    -0.192 F 
ATOM      3  C   *** d   1       5.975  13.482   0.580  0.00  0.00     0.384 C 
ENDROOT
BRANCH   3   4
ATOM      4  C   *** d   1       7.379  13.628   0.017  0.00  0.00     0.385 C 
ATOM      5  F   *** d   1       7.297  13.786  -1.291  0.00  0.00    -0.192 F 
ATOM      6  F   *** d   1       8.017  12.482   0.178  0.00  0.00    -0.192 F 
BRANCH   4   7
ATOM      7  C   *** d   1       8.254  14.733   0.578  0.00  0.00     0.388 C 
ATOM      8  F   *** d   1       8.348  14.595   1.889  0.00  0.00    -0.192 F 
ATOM      9  F   *** d   1       7.651  15.896   0.409  0.00  0.00    -0.192 F 
BRANCH   7  10
ATOM     10  C   *** d   1       9.672  14.851   0.063  0.00  0.00     0.396 C 
ATOM     11  F   *** d   1       9.950  16.136  -0.209  0.00  0.00    -0.187 F 
ATOM     12  F   *** d   1       9.784  14.181  -1.093  0.00  0.00    -0.187 F 
BRANCH  10  13
ATOM     13  C   *** d   1      10.709  14.282   1.069  0.00  0.00     0.222 C 
ATOM     14  O   *** d   1      10.934  13.100   1.231  0.00  0.00    -0.645 OA
BRANCH  13  15
ATOM     15  O   *** d   1      11.336  15.276   1.739  0.00  0.00    -0.772 OA
ATOM     16  H   *** d   1      11.030  15.365   2.656  0.00  0.00     0.167 HD
ENDBRANCH  13  15
ENDBRANCH  10  13
ENDBRANCH   7  10
ENDBRANCH   4   7
ENDBRANCH   3   4
BRANCH   3  17
ATOM     17  C   *** d   1       5.299  12.126   0.451  0.00  0.00     0.387 C 
ATOM     18  F   *** d   1       5.986  11.244   1.152  0.00  0.00    -0.192 F 
ATOM     19  F   *** d   1       5.407  11.717  -0.799  0.00  0.00    -0.192 F 
BRANCH  17  20
ATOM     20  C   *** d   1       3.838  12.016   0.859  0.00  0.00     0.409 C 
ATOM     21  F   *** d   1       3.089  12.458  -0.139  0.00  0.00    -0.189 F 
ATOM     22  F   *** d   1       3.619  12.856   1.859  0.00  0.00    -0.189 F 
BRANCH  20  23
ATOM     23  C   *** d   1       3.338  10.652   1.262  0.00  0.00     0.461 C 
ATOM     24  F   *** d   1       2.052  10.666   1.480  0.00  0.00    -0.165 F 
ATOM     25  F   *** d   1       3.916  10.212   2.349  0.00  0.00    -0.165 F 
ATOM     26  F   *** d   1       3.553   9.774   0.321  0.00  0.00    -0.165 F 
ENDBRANCH  20  23
ENDBRANCH  17  20
ENDBRANCH   3  17
TORSDOF 8
ENDMDL
MODEL 8
REMARK VINA RESULT:      -6.8      2.763      5.967
REMARK  8 active torsions:
REMARK  status: ('A' for Active; 'I' for Inactive)
REMARK    1  A    between atoms: O_16  and  C_25 
REMARK    2  A    between atoms: C_18  and  C_19 
REMARK    3  A    between atoms: C_18  and  C_20 
REMARK    4  A    between atoms: C_19  and  C_21 
REMARK    5  A    between atoms: C_20  and  C_22 
REMARK    6  A    between atoms: C_21  and  C_23 
REMARK    7  A    between atoms: C_22  and  C_24 
REMARK    8  A    between atoms: C_23  and  C_25 
ROOT
ATOM      1  F   *** d   1       6.557  13.184   1.954  0.00  0.00    -0.192 F 
ATOM      2  F   *** d   1       4.863  13.660   0.820  0.00  0.00    -0.192 F 
ATOM      3  C   *** d   1       5.922  12.872   0.839  0.00  0.00     0.384 C 
ENDROOT
BRANCH   3   4
ATOM      4  C   *** d   1       6.815  13.240  -0.335  0.00  0.00     0.385 C 
ATOM      5  F   *** d   1       6.255  12.802  -1.447  0.00  0.00    -0.192 F 
ATOM      6  F   *** d   1       7.942  12.558  -0.235  0.00  0.00    -0.192 F 
BRANCH   4   7
ATOM      7  C   *** d   1       7.168  14.703  -0.521  0.00  0.00     0.388 C 
ATOM      8  F   *** d   1       6.341  15.449   0.192  0.00  0.00    -0.192 F 
ATOM      9  F   *** d   1       6.935  15.054  -1.773  0.00  0.00    -0.192 F 
BRANCH   7  10
ATOM     10  C   *** d   1       8.566  15.152  -0.152  0.00  0.00     0.396 C 
ATOM     11  F   *** d   1       9.412  14.868  -1.154  0.00  0.00    -0.187 F 
ATOM     12  F   *** d   1       8.988  14.461   0.917  0.00  0.00    -0.187 F 
BRANCH  10  13
ATOM     13  C   *** d   1       8.624  16.667   0.182  0.00  0.00     0.222 C 
ATOM     14  O   *** d   1       8.378  17.557  -0.607  0.00  0.00    -0.645 OA
BRANCH  13  15
ATOM     15  O   *** d   1       8.980  16.870   1.472  0.00  0.00    -0.772 OA
ATOM     16  H   *** d   1       9.157  16.044   1.950  0.00  0.00     0.167 HD
ENDBRANCH  13  15
ENDBRANCH  10  13
ENDBRANCH   7  10
ENDBRANCH   4   7
ENDBRANCH   3   4
BRANCH   3  17
ATOM     17  C   *** d   1       5.448  11.431   0.942  0.00  0.00     0.387 C 
ATOM     18  F   *** d   1       5.598  11.026   2.189  0.00  0.00    -0.192 F 
ATOM     19  F   *** d   1       6.265  10.665   0.241  0.00  0.00    -0.192 F 
BRANCH  17  20
ATOM     20  C   *** d   1       4.024  11.116   0.513  0.00  0.00     0.409 C 
ATOM     21  F   *** d   1       3.930   9.815   0.289  0.00  0.00    -0.189 F 
ATOM     22  F   *** d   1       3.804  11.690  -0.659  0.00  0.00    -0.189 F 
BRANCH  20  23
ATOM     23  C   *** d   1       2.918  11.518   1.456  0.00  0.00     0.461 C 
ATOM     24  F   *** d   1       2.099  10.527   1.674  0.00  0.00    -0.165 F 
ATOM     25  F   *** d   1       2.211  12.518   0.997  0.00  0.00    -0.165 F 
ATOM     26  F   *** d   1       3.395  11.877   2.617  0.00  0.00    -0.165 F 
ENDBRANCH  20  23
ENDBRANCH  17  20
ENDBRANCH   3  17
TORSDOF 8
ENDMDL
MODEL 9
REMARK VINA RESULT:      -6.7     19.222     22.841
REMARK  8 active torsions:
REMARK  status: ('A' for Active; 'I' for Inactive)
REMARK    1  A    between atoms: O_16  and  C_25 
REMARK    2  A    between atoms: C_18  and  C_19 
REMARK    3  A    between atoms: C_18  and  C_20 
REMARK    4  A    between atoms: C_19  and  C_21 
REMARK    5  A    between atoms: C_20  and  C_22 
REMARK    6  A    between atoms: C_21  and  C_23 
REMARK    7  A    between atoms: C_22  and  C_24 
REMARK    8  A    between atoms: C_23  and  C_25 
ROOT
ATOM      1  F   *** d   1     -13.946   3.410   4.085  0.00  0.00    -0.192 F 
ATOM      2  F   *** d   1     -11.999   2.885   4.648  0.00  0.00    -0.192 F 
ATOM      3  C   *** d   1     -13.093   3.477   5.091  0.00  0.00     0.384 C 
ENDROOT
BRANCH   3   4
ATOM      4  C   *** d   1     -12.776   4.941   5.349  0.00  0.00     0.385 C 
ATOM      5  F   *** d   1     -12.485   5.094   6.628  0.00  0.00    -0.192 F 
ATOM      6  F   *** d   1     -13.878   5.648   5.168  0.00  0.00    -0.192 F 
BRANCH   4   7
ATOM      7  C   *** d   1     -11.671   5.579   4.528  0.00  0.00     0.388 C 
ATOM      8  F   *** d   1     -10.533   4.945   4.757  0.00  0.00    -0.192 F 
ATOM      9  F   *** d   1     -11.459   6.809   4.960  0.00  0.00    -0.192 F 
BRANCH   7  10
ATOM     10  C   *** d   1     -11.835   5.622   3.024  0.00  0.00     0.396 C 
ATOM     11  F   *** d   1     -13.137   5.717   2.713  0.00  0.00    -0.187 F 
ATOM     12  F   *** d   1     -11.395   4.472   2.494  0.00  0.00    -0.187 F 
BRANCH  10  13
ATOM     13  C   *** d   1     -11.046   6.796   2.383  0.00  0.00     0.222 C 
ATOM     14  O   *** d   1     -11.492   7.912   2.208  0.00  0.00    -0.645 OA
BRANCH  13  15
ATOM     15  O   *** d   1      -9.791   6.417   2.051  0.00  0.00    -0.772 OA
ATOM     16  H   *** d   1      -9.337   7.064   1.487  0.00  0.00     0.167 HD
ENDBRANCH  13  15
ENDBRANCH  10  13
ENDBRANCH   7  10
ENDBRANCH   4   7
ENDBRANCH   3   4
BRANCH   3  17
ATOM     17  C   *** d   1     -13.648   2.661   6.247  0.00  0.00     0.387 C 
ATOM     18  F   *** d   1     -14.506   3.407   6.917  0.00  0.00    -0.192 F 
ATOM     19  F   *** d   1     -12.673   2.421   7.104  0.00  0.00    -0.192 F 
BRANCH  17  20
ATOM     20  C   *** d   1     -14.328   1.338   5.925  0.00  0.00     0.409 C 
ATOM     21  F   *** d   1     -13.697   0.780   4.905  0.00  0.00    -0.189 F 
ATOM     22  F   *** d   1     -15.549   1.593   5.484  0.00  0.00    -0.189 F 
BRANCH  20  23
ATOM     23  C   *** d   1     -14.423   0.326   7.039  0.00  0.00     0.461 C 
ATOM     24  F   *** d   1     -13.263  -0.217   7.284  0.00  0.00    -0.165 F 
ATOM     25  F   *** d   1     -15.259  -0.641   6.761  0.00  0.00    -0.165 F 
ATOM     26  F   *** d   1     -14.823   0.883   8.149  0.00  0.00    -0.165 F 
ENDBRANCH  20  23
ENDBRANCH  17  20
ENDBRANCH   3  17
TORSDOF 8
ENDMDL
MODEL 10
REMARK VINA RESULT:      -6.7     18.626     20.756
REMARK  8 active torsions:
REMARK  status: ('A' for Active; 'I' for Inactive)
REMARK    1  A    between atoms: O_16  and  C_25 
REMARK    2  A    between atoms: C_18  and  C_19 
REMARK    3  A    between atoms: C_18  and  C_20 
REMARK    4  A    between atoms: C_19  and  C_21 
REMARK    5  A    between atoms: C_20  and  C_22 
REMARK    6  A    between atoms: C_21  and  C_23 
REMARK    7  A    between atoms: C_22  and  C_24 
REMARK    8  A    between atoms: C_23  and  C_25 
ROOT
ATOM      1  F   *** d   1     -13.127   5.840   4.308  0.00  0.00    -0.192 F 
ATOM      2  F   *** d   1     -11.367   6.752   4.979  0.00  0.00    -0.192 F 
ATOM      3  C   *** d   1     -11.819   5.671   4.371  0.00  0.00     0.384 C 
ENDROOT
BRANCH   3   4
ATOM      4  C   *** d   1     -11.538   4.469   5.257  0.00  0.00     0.385 C 
ATOM      5  F   *** d   1     -10.403   4.673   5.901  0.00  0.00    -0.192 F 
ATOM      6  F   *** d   1     -11.303   3.423   4.485  0.00  0.00    -0.192 F 
BRANCH   4   7
ATOM      7  C   *** d   1     -12.597   4.074   6.269  0.00  0.00     0.388 C 
ATOM      8  F   *** d   1     -13.124   5.165   6.800  0.00  0.00    -0.192 F 
ATOM      9  F   *** d   1     -12.024   3.454   7.284  0.00  0.00    -0.192 F 
BRANCH   7  10
ATOM     10  C   *** d   1     -13.761   3.233   5.791  0.00  0.00     0.396 C 
ATOM     11  F   *** d   1     -13.776   3.202   4.449  0.00  0.00    -0.187 F 
ATOM     12  F   *** d   1     -14.912   3.804   6.175  0.00  0.00    -0.187 F 
BRANCH  10  13
ATOM     13  C   *** d   1     -13.711   1.789   6.358  0.00  0.00     0.222 C 
ATOM     14  O   *** d   1     -14.333   1.408   7.329  0.00  0.00    -0.645 OA
BRANCH  13  15
ATOM     15  O   *** d   1     -12.887   1.005   5.626  0.00  0.00    -0.772 OA
ATOM     16  H   *** d   1     -13.213   0.095   5.533  0.00  0.00     0.167 HD
ENDBRANCH  13  15
ENDBRANCH  10  13
ENDBRANCH   7  10
ENDBRANCH   4   7
ENDBRANCH   3   4
BRANCH   3  17
ATOM     17  C   *** d   1     -11.268   5.649   2.954  0.00  0.00     0.387 C 
ATOM     18  F   *** d   1     -11.990   4.811   2.234  0.00  0.00    -0.192 F 
ATOM     19  F   *** d   1     -10.060   5.115   2.977  0.00  0.00    -0.192 F 
BRANCH  17  20
ATOM     20  C   *** d   1     -11.186   6.967   2.200  0.00  0.00     0.409 C 
ATOM     21  F   *** d   1     -10.541   6.760   1.063  0.00  0.00    -0.189 F 
ATOM     22  F   *** d   1     -10.420   7.796   2.890  0.00  0.00    -0.189 F 
BRANCH  20  23
ATOM     23  C   *** d   1     -12.487   7.664   1.891  0.00  0.00     0.461 C 
ATOM     24  F   *** d   1     -12.906   8.357   2.913  0.00  0.00    -0.165 F 
ATOM     25  F   *** d   1     -13.437   6.825   1.570  0.00  0.00    -0.165 F 
ATOM     26  F   *** d   1     -12.350   8.499   0.898  0.00  0.00    -0.165 F 
ENDBRANCH  20  23
ENDBRANCH  17  20
ENDBRANCH   3  17
TORSDOF 8
ENDMDL
MODEL 11
REMARK VINA RESULT:      -6.7     18.939     22.682
REMARK  8 active torsions:
REMARK  status: ('A' for Active; 'I' for Inactive)
REMARK    1  A    between atoms: O_16  and  C_25 
REMARK    2  A    between atoms: C_18  and  C_19 
REMARK    3  A    between atoms: C_18  and  C_20 
REMARK    4  A    between atoms: C_19  and  C_21 
REMARK    5  A    between atoms: C_20  and  C_22 
REMARK    6  A    between atoms: C_21  and  C_23 
REMARK    7  A    between atoms: C_22  and  C_24 
REMARK    8  A    between atoms: C_23  and  C_25 
ROOT
ATOM      1  F   *** d   1     -12.356   3.688   7.603  0.00  0.00    -0.192 F 
ATOM      2  F   *** d   1     -13.255   5.399   6.800  0.00  0.00    -0.192 F 
ATOM      3  C   *** d   1     -12.917   4.158   6.504  0.00  0.00     0.384 C 
ENDROOT
BRANCH   3   4
ATOM      4  C   *** d   1     -11.860   4.196   5.411  0.00  0.00     0.385 C 
ATOM      5  F   *** d   1     -11.938   3.082   4.707  0.00  0.00    -0.192 F 
ATOM      6  F   *** d   1     -10.668   4.154   5.978  0.00  0.00    -0.192 F 
BRANCH   4   7
ATOM      7  C   *** d   1     -11.881   5.371   4.451  0.00  0.00     0.388 C 
ATOM      8  F   *** d   1     -11.255   6.398   5.001  0.00  0.00    -0.192 F 
ATOM      9  F   *** d   1     -13.124   5.786   4.294  0.00  0.00    -0.192 F 
BRANCH   7  10
ATOM     10  C   *** d   1     -11.263   5.183   3.082  0.00  0.00     0.396 C 
ATOM     11  F   *** d   1     -12.048   4.391   2.336  0.00  0.00    -0.187 F 
ATOM     12  F   *** d   1     -10.086   4.553   3.207  0.00  0.00    -0.187 F 
BRANCH  10  13
ATOM     13  C   *** d   1     -11.027   6.536   2.357  0.00  0.00     0.222 C 
ATOM     14  O   *** d   1     -11.881   7.381   2.179  0.00  0.00    -0.645 OA
BRANCH  13  15
ATOM     15  O   *** d   1      -9.741   6.656   1.953  0.00  0.00    -0.772 OA
ATOM     16  H   *** d   1      -9.587   7.445   1.410  0.00  0.00     0.167 HD
ENDBRANCH  13  15
ENDBRANCH  10  13
ENDBRANCH   7  10
ENDBRANCH   4   7
ENDBRANCH   3   4
BRANCH   3  17
ATOM     17  C   *** d   1     -14.184   3.364   6.233  0.00  0.00     0.387 C 
ATOM     18  F   *** d   1     -14.431   3.393   4.937  0.00  0.00    -0.192 F 
ATOM     19  F   *** d   1     -15.205   3.995   6.783  0.00  0.00    -0.192 F 
BRANCH  17  20
ATOM     20  C   *** d   1     -14.228   1.913   6.688  0.00  0.00     0.409 C 
ATOM     21  F   *** d   1     -14.704   1.874   7.922  0.00  0.00    -0.189 F 
ATOM     22  F   *** d   1     -12.986   1.466   6.778  0.00  0.00    -0.189 F 
BRANCH  20  23
ATOM     23  C   *** d   1     -15.021   0.951   5.840  0.00  0.00     0.461 C 
ATOM     24  F   *** d   1     -16.209   1.422   5.577  0.00  0.00    -0.165 F 
ATOM     25  F   *** d   1     -15.178  -0.210   6.420  0.00  0.00    -0.165 F 
ATOM     26  F   *** d   1     -14.435   0.740   4.693  0.00  0.00    -0.165 F 
ENDBRANCH  20  23
ENDBRANCH  17  20
ENDBRANCH   3  17
TORSDOF 8
ENDMDL
MODEL 12
REMARK VINA RESULT:      -6.6      1.527      2.966
REMARK  8 active torsions:
REMARK  status: ('A' for Active; 'I' for Inactive)
REMARK    1  A    between atoms: O_16  and  C_25 
REMARK    2  A    between atoms: C_18  and  C_19 
REMARK    3  A    between atoms: C_18  and  C_20 
REMARK    4  A    between atoms: C_19  and  C_21 
REMARK    5  A    between atoms: C_20  and  C_22 
REMARK    6  A    between atoms: C_21  and  C_23 
REMARK    7  A    between atoms: C_22  and  C_24 
REMARK    8  A    between atoms: C_23  and  C_25 
ROOT
ATOM      1  F   *** d   1       7.930  13.181  -0.087  0.00  0.00    -0.192 F 
ATOM      2  F   *** d   1       6.700  13.590  -1.730  0.00  0.00    -0.192 F 
ATOM      3  C   *** d   1       6.991  14.007  -0.511  0.00  0.00     0.384 C 
ENDROOT
BRANCH   3   4
ATOM      4  C   *** d   1       5.763  13.821   0.366  0.00  0.00     0.385 C 
ATOM      5  F   *** d   1       4.832  14.671  -0.023  0.00  0.00    -0.192 F 
ATOM      6  F   *** d   1       6.067  14.194   1.597  0.00  0.00    -0.192 F 
BRANCH   4   7
ATOM      7  C   *** d   1       5.148  12.436   0.435  0.00  0.00     0.388 C 
ATOM      8  F   *** d   1       5.797  11.712   1.332  0.00  0.00    -0.192 F 
ATOM      9  F   *** d   1       5.353  11.808  -0.708  0.00  0.00    -0.192 F 
BRANCH   7  10
ATOM     10  C   *** d   1       3.680  12.325   0.785  0.00  0.00     0.396 C 
ATOM     11  F   *** d   1       2.935  12.602  -0.297  0.00  0.00    -0.187 F 
ATOM     12  F   *** d   1       3.372  13.243   1.711  0.00  0.00    -0.187 F 
BRANCH  10  13
ATOM     13  C   *** d   1       3.315  10.920   1.338  0.00  0.00     0.222 C 
ATOM     14  O   *** d   1       3.273   9.906   0.671  0.00  0.00    -0.645 OA
BRANCH  13  15
ATOM     15  O   *** d   1       3.056  10.970   2.665  0.00  0.00    -0.772 OA
ATOM     16  H   *** d   1       2.609  11.789   2.933  0.00  0.00     0.167 HD
ENDBRANCH  13  15
ENDBRANCH  10  13
ENDBRANCH   7  10
ENDBRANCH   4   7
ENDBRANCH   3   4
BRANCH   3  17
ATOM     17  C   *** d   1       7.585  15.402  -0.609  0.00  0.00     0.387 C 
ATOM     18  F   *** d   1       6.635  16.283  -0.358  0.00  0.00    -0.192 F 
ATOM     19  F   *** d   1       7.930  15.630  -1.863  0.00  0.00    -0.192 F 
BRANCH  17  20
ATOM     20  C   *** d   1       8.778  15.733   0.275  0.00  0.00     0.409 C 
ATOM     21  F   *** d   1       8.546  15.260   1.488  0.00  0.00    -0.189 F 
ATOM     22  F   *** d   1       8.840  17.047   0.418  0.00  0.00    -0.189 F 
BRANCH  20  23
ATOM     23  C   *** d   1      10.128  15.238  -0.180  0.00  0.00     0.461 C 
ATOM     24  F   *** d   1      10.082  14.801  -1.408  0.00  0.00    -0.165 F 
ATOM     25  F   *** d   1      10.578  14.264   0.567  0.00  0.00    -0.165 F 
ATOM     26  F   *** d   1      11.015  16.195  -0.152  0.00  0.00    -0.165 F 
ENDBRANCH  20  23
ENDBRANCH  17  20
ENDBRANCH   3  17
TORSDOF 8
ENDMDL
MODEL 13
REMARK VINA RESULT:      -6.4      1.356      2.335
REMARK  8 active torsions:
REMARK  status: ('A' for Active; 'I' for Inactive)
REMARK    1  A    between atoms: O_16  and  C_25 
REMARK    2  A    between atoms: C_18  and  C_19 
REMARK    3  A    between atoms: C_18  and  C_20 
REMARK    4  A    between atoms: C_19  and  C_21 
REMARK    5  A    between atoms: C_20  and  C_22 
REMARK    6  A    between atoms: C_21  and  C_23 
REMARK    7  A    between atoms: C_22  and  C_24 
REMARK    8  A    between atoms: C_23  and  C_25 
ROOT
ATOM      1  F   *** d   1       8.042  12.945  -0.130  0.00  0.00    -0.192 F 
ATOM      2  F   *** d   1       6.617  14.108  -1.130  0.00  0.00    -0.192 F 
ATOM      3  C   *** d   1       7.406  14.101  -0.071  0.00  0.00     0.384 C 
ENDROOT
BRANCH   3   4
ATOM      4  C   *** d   1       6.536  14.101   1.176  0.00  0.00     0.385 C 
ATOM      5  F   *** d   1       5.542  14.951   0.999  0.00  0.00    -0.192 F 
ATOM      6  F   *** d   1       7.236  14.605   2.176  0.00  0.00    -0.192 F 
BRANCH   4   7
ATOM      7  C   *** d   1       5.956  12.775   1.632  0.00  0.00     0.388 C 
ATOM      8  F   *** d   1       5.636  12.853   2.912  0.00  0.00    -0.192 F 
ATOM      9  F   *** d   1       6.894  11.846   1.580  0.00  0.00    -0.192 F 
BRANCH   7  10
ATOM     10  C   *** d   1       4.727  12.252   0.920  0.00  0.00     0.396 C 
ATOM     11  F   *** d   1       4.372  13.104  -0.054  0.00  0.00    -0.187 F 
ATOM     12  F   *** d   1       3.701  12.203   1.781  0.00  0.00    -0.187 F 
BRANCH  10  13
ATOM     13  C   *** d   1       4.951  10.832   0.333  0.00  0.00     0.222 C 
ATOM     14  O   *** d   1       4.638   9.799   0.890  0.00  0.00    -0.645 OA
BRANCH  13  15
ATOM     15  O   *** d   1       5.535  10.894  -0.886  0.00  0.00    -0.772 OA
ATOM     16  H   *** d   1       5.209  10.214  -1.496  0.00  0.00     0.167 HD
ENDBRANCH  13  15
ENDBRANCH  10  13
ENDBRANCH   7  10
ENDBRANCH   4   7
ENDBRANCH   3   4
BRANCH   3  17
ATOM     17  C   *** d   1       8.425  15.219  -0.222  0.00  0.00     0.387 C 
ATOM     18  F   *** d   1       9.206  14.942  -1.248  0.00  0.00    -0.192 F 
ATOM     19  F   *** d   1       9.230  15.202   0.825  0.00  0.00    -0.192 F 
BRANCH  17  20
ATOM     20  C   *** d   1       7.906  16.638  -0.395  0.00  0.00     0.409 C 
ATOM     21  F   *** d   1       8.938  17.466  -0.386  0.00  0.00    -0.189 F 
ATOM     22  F   *** d   1       7.194  16.955   0.675  0.00  0.00    -0.189 F 
BRANCH  20  23
ATOM     23  C   *** d   1       7.077  16.921  -1.622  0.00  0.00     0.461 C 
ATOM     24  F   *** d   1       7.123  18.185  -1.941  0.00  0.00    -0.165 F 
ATOM     25  F   *** d   1       5.820  16.603  -1.457  0.00  0.00    -0.165 F 
ATOM     26  F   *** d   1       7.518  16.254  -2.653  0.00  0.00    -0.165 F 
ENDBRANCH  20  23
ENDBRANCH  17  20
ENDBRANCH   3  17
TORSDOF 8
ENDMDL
MODEL 14
REMARK VINA RESULT:      -6.4      1.564      2.609
REMARK  8 active torsions:
REMARK  status: ('A' for Active; 'I' for Inactive)
REMARK    1  A    between atoms: O_16  and  C_25 
REMARK    2  A    between atoms: C_18  and  C_19 
REMARK    3  A    between atoms: C_18  and  C_20 
REMARK    4  A    between atoms: C_19  and  C_21 
REMARK    5  A    between atoms: C_20  and  C_22 
REMARK    6  A    between atoms: C_21  and  C_23 
REMARK    7  A    between atoms: C_22  and  C_24 
REMARK    8  A    between atoms: C_23  and  C_25 
ROOT
ATOM      1  F   *** d   1       8.761  12.206   1.226  0.00  0.00    -0.192 F 
ATOM      2  F   *** d   1       7.659  12.328  -0.549  0.00  0.00    -0.192 F 
ATOM      3  C   *** d   1       7.581  12.558   0.749  0.00  0.00     0.384 C 
ENDROOT
BRANCH   3   4
ATOM      4  C   *** d   1       6.533  11.628   1.339  0.00  0.00     0.385 C 
ATOM      5  F   *** d   1       6.014  12.200   2.409  0.00  0.00    -0.192 F 
ATOM      6  F   *** d   1       7.140  10.547   1.796  0.00  0.00    -0.192 F 
BRANCH   4   7
ATOM      7  C   *** d   1       5.398  11.181   0.437  0.00  0.00     0.388 C 
ATOM      8  F   *** d   1       5.853  10.302  -0.439  0.00  0.00    -0.192 F 
ATOM      9  F   *** d   1       4.994  12.202  -0.297  0.00  0.00    -0.192 F 
BRANCH   7  10
ATOM     10  C   *** d   1       4.184  10.546   1.081  0.00  0.00     0.396 C 
ATOM     11  F   *** d   1       4.576   9.661   2.010  0.00  0.00    -0.187 F 
ATOM     12  F   *** d   1       3.499   9.858   0.157  0.00  0.00    -0.187 F 
BRANCH  10  13
ATOM     13  C   *** d   1       3.239  11.602   1.715  0.00  0.00     0.222 C 
ATOM     14  O   *** d   1       2.635  12.450   1.090  0.00  0.00    -0.645 OA
BRANCH  13  15
ATOM     15  O   *** d   1       3.168  11.452   3.057  0.00  0.00    -0.772 OA
ATOM     16  H   *** d   1       3.810  10.809   3.400  0.00  0.00     0.167 HD
ENDBRANCH  13  15
ENDBRANCH  10  13
ENDBRANCH   7  10
ENDBRANCH   4   7
ENDBRANCH   3   4
BRANCH   3  17
ATOM     17  C   *** d   1       7.401  14.052   0.963  0.00  0.00     0.387 C 
ATOM     18  F   *** d   1       7.837  14.360   2.170  0.00  0.00    -0.192 F 
ATOM     19  F   *** d   1       6.109  14.323   0.995  0.00  0.00    -0.192 F 
BRANCH  17  20
ATOM     20  C   *** d   1       8.056  14.999  -0.030  0.00  0.00     0.409 C 
ATOM     21  F   *** d   1       9.141  14.416  -0.514  0.00  0.00    -0.189 F 
ATOM     22  F   *** d   1       8.495  16.059   0.631  0.00  0.00    -0.189 F 
BRANCH  20  23
ATOM     23  C   *** d   1       7.213  15.473  -1.187  0.00  0.00     0.461 C 
ATOM     24  F   *** d   1       7.947  16.032  -2.109  0.00  0.00    -0.165 F 
ATOM     25  F   *** d   1       6.311  16.345  -0.820  0.00  0.00    -0.165 F 
ATOM     26  F   *** d   1       6.588  14.478  -1.753  0.00  0.00    -0.165 F 
ENDBRANCH  20  23
ENDBRANCH  17  20
ENDBRANCH   3  17
TORSDOF 8
ENDMDL
MODEL 15
REMARK VINA RESULT:      -6.4     19.080     22.099
REMARK  8 active torsions:
REMARK  status: ('A' for Active; 'I' for Inactive)
REMARK    1  A    between atoms: O_16  and  C_25 
REMARK    2  A    between atoms: C_18  and  C_19 
REMARK    3  A    between atoms: C_18  and  C_20 
REMARK    4  A    between atoms: C_19  and  C_21 
REMARK    5  A    between atoms: C_20  and  C_22 
REMARK    6  A    between atoms: C_21  and  C_23 
REMARK    7  A    between atoms: C_22  and  C_24 
REMARK    8  A    between atoms: C_23  and  C_25 
ROOT
ATOM      1  F   *** d   1     -13.620   6.044   5.758  0.00  0.00    -0.192 F 
ATOM      2  F   *** d   1     -12.334   6.122   7.408  0.00  0.00    -0.192 F 
ATOM      3  C   *** d   1     -12.763   5.318   6.453  0.00  0.00     0.384 C 
ENDROOT
BRANCH   3   4
ATOM      4  C   *** d   1     -13.526   4.171   7.097  0.00  0.00     0.385 C 
ATOM      5  F   *** d   1     -14.046   4.593   8.234  0.00  0.00    -0.192 F 
ATOM      6  F   *** d   1     -12.660   3.237   7.448  0.00  0.00    -0.192 F 
BRANCH   4   7
ATOM      7  C   *** d   1     -14.624   3.510   6.285  0.00  0.00     0.388 C 
ATOM      8  F   *** d   1     -14.306   3.550   5.002  0.00  0.00    -0.192 F 
ATOM      9  F   *** d   1     -15.728   4.228   6.376  0.00  0.00    -0.192 F 
BRANCH   7  10
ATOM     10  C   *** d   1     -14.966   2.067   6.590  0.00  0.00     0.396 C 
ATOM     11  F   *** d   1     -16.298   1.922   6.657  0.00  0.00    -0.187 F 
ATOM     12  F   *** d   1     -14.482   1.740   7.797  0.00  0.00    -0.187 F 
BRANCH  10  13
ATOM     13  C   *** d   1     -14.374   1.091   5.537  0.00  0.00     0.222 C 
ATOM     14  O   *** d   1     -14.995   0.628   4.602  0.00  0.00    -0.645 OA
BRANCH  13  15
ATOM     15  O   *** d   1     -13.072   0.828   5.793  0.00  0.00    -0.772 OA
ATOM     16  H   *** d   1     -12.919   0.525   6.702  0.00  0.00     0.167 HD
ENDBRANCH  13  15
ENDBRANCH  10  13
ENDBRANCH   7  10
ENDBRANCH   4   7
ENDBRANCH   3   4
BRANCH   3  17
ATOM     17  C   *** d   1     -11.588   4.969   5.554  0.00  0.00     0.387 C 
ATOM     18  F   *** d   1     -11.525   3.656   5.433  0.00  0.00    -0.192 F 
ATOM     19  F   *** d   1     -10.469   5.302   6.170  0.00  0.00    -0.192 F 
BRANCH  17  20
ATOM     20  C   *** d   1     -11.555   5.571   4.158  0.00  0.00     0.409 C 
ATOM     21  F   *** d   1     -11.258   6.857   4.262  0.00  0.00    -0.189 F 
ATOM     22  F   *** d   1     -12.779   5.535   3.657  0.00  0.00    -0.189 F 
BRANCH  20  23
ATOM     23  C   *** d   1     -10.613   4.944   3.161  0.00  0.00     0.461 C 
ATOM     24  F   *** d   1      -9.555   4.460   3.751  0.00  0.00    -0.165 F 
ATOM     25  F   *** d   1     -10.204   5.797   2.258  0.00  0.00    -0.165 F 
ATOM     26  F   *** d   1     -11.183   3.953   2.533  0.00  0.00    -0.165 F 
ENDBRANCH  20  23
ENDBRANCH  17  20
ENDBRANCH   3  17
TORSDOF 8
ENDMDL
MODEL 16
REMARK VINA RESULT:      -6.4      1.593      2.634
REMARK  8 active torsions:
REMARK  status: ('A' for Active; 'I' for Inactive)
REMARK    1  A    between atoms: O_16  and  C_25 
REMARK    2  A    between atoms: C_18  and  C_19 
REMARK    3  A    between atoms: C_18  and  C_20 
REMARK    4  A    between atoms: C_19  and  C_21 
REMARK    5  A    between atoms: C_20  and  C_22 
REMARK    6  A    between atoms: C_21  and  C_23 
REMARK    7  A    between atoms: C_22  and  C_24 
REMARK    8  A    between atoms: C_23  and  C_25 
ROOT
ATOM      1  F   *** d   1       6.041  15.372  -1.176  0.00  0.00    -0.192 F 
ATOM      2  F   *** d   1       6.176  15.194   0.905  0.00  0.00    -0.192 F 
ATOM      3  C   *** d   1       6.748  14.800  -0.218  0.00  0.00     0.384 C 
ENDROOT
BRANCH   3   4
ATOM      4  C   *** d   1       6.580  13.294  -0.339  0.00  0.00     0.385 C 
ATOM      5  F   *** d   1       7.706  12.711   0.028  0.00  0.00    -0.192 F 
ATOM      6  F   *** d   1       6.444  12.988  -1.617  0.00  0.00    -0.192 F 
BRANCH   4   7
ATOM      7  C   *** d   1       5.437  12.648   0.421  0.00  0.00     0.388 C 
ATOM      8  F   *** d   1       4.297  13.217   0.068  0.00  0.00    -0.192 F 
ATOM      9  F   *** d   1       5.559  12.919   1.708  0.00  0.00    -0.192 F 
BRANCH   7  10
ATOM     10  C   *** d   1       5.231  11.156   0.265  0.00  0.00     0.396 C 
ATOM     11  F   *** d   1       6.118  10.666  -0.614  0.00  0.00    -0.187 F 
ATOM     12  F   *** d   1       4.013  10.926  -0.246  0.00  0.00    -0.187 F 
BRANCH  10  13
ATOM     13  C   *** d   1       5.350  10.405   1.619  0.00  0.00     0.222 C 
ATOM     14  O   *** d   1       4.411  10.122   2.335  0.00  0.00    -0.645 OA
BRANCH  13  15
ATOM     15  O   *** d   1       6.638  10.099   1.896  0.00  0.00    -0.772 OA
ATOM     16  H   *** d   1       6.739   9.227   2.310  0.00  0.00     0.167 HD
ENDBRANCH  13  15
ENDBRANCH  10  13
ENDBRANCH   7  10
ENDBRANCH   4   7
ENDBRANCH   3   4
BRANCH   3  17
ATOM     17  C   *** d   1       8.160  15.360  -0.261  0.00  0.00     0.387 C 
ATOM     18  F   *** d   1       8.137  16.513  -0.902  0.00  0.00    -0.192 F 
ATOM     19  F   *** d   1       8.905  14.573  -1.016  0.00  0.00    -0.192 F 
BRANCH  17  20
ATOM     20  C   *** d   1       8.885  15.569   1.059  0.00  0.00     0.409 C 
ATOM     21  F   *** d   1       8.551  14.589   1.882  0.00  0.00    -0.189 F 
ATOM     22  F   *** d   1       8.418  16.672   1.621  0.00  0.00    -0.189 F 
BRANCH  20  23
ATOM     23  C   *** d   1      10.390  15.658   1.010  0.00  0.00     0.461 C 
ATOM     24  F   *** d   1      10.929  14.479   0.873  0.00  0.00    -0.165 F 
ATOM     25  F   *** d   1      10.892  16.197   2.090  0.00  0.00    -0.165 F 
ATOM     26  F   *** d   1      10.787  16.376  -0.005  0.00  0.00    -0.165 F 
ENDBRANCH  20  23
ENDBRANCH  17  20
ENDBRANCH   3  17
TORSDOF 8
ENDMDL
MODEL 17
REMARK VINA RESULT:      -6.2     18.676     21.515
REMARK  8 active torsions:
REMARK  status: ('A' for Active; 'I' for Inactive)
REMARK    1  A    between atoms: O_16  and  C_25 
REMARK    2  A    between atoms: C_18  and  C_19 
REMARK    3  A    between atoms: C_18  and  C_20 
REMARK    4  A    between atoms: C_19  and  C_21 
REMARK    5  A    between atoms: C_20  and  C_22 
REMARK    6  A    between atoms: C_21  and  C_23 
REMARK    7  A    between atoms: C_22  and  C_24 
REMARK    8  A    between atoms: C_23  and  C_25 
ROOT
ATOM      1  F   *** d   1     -11.704   5.663   6.673  0.00  0.00    -0.192 F 
ATOM      2  F   *** d   1     -10.948   4.539   5.077  0.00  0.00    -0.192 F 
ATOM      3  C   *** d   1     -11.997   5.246   5.455  0.00  0.00     0.384 C 
ENDROOT
BRANCH   3   4
ATOM      4  C   *** d   1     -13.195   4.315   5.548  0.00  0.00     0.385 C 
ATOM      5  F   *** d   1     -13.192   3.514   4.498  0.00  0.00    -0.192 F 
ATOM      6  F   *** d   1     -14.296   5.033   5.420  0.00  0.00    -0.192 F 
BRANCH   4   7
ATOM      7  C   *** d   1     -13.333   3.465   6.797  0.00  0.00     0.388 C 
ATOM      8  F   *** d   1     -13.669   4.236   7.818  0.00  0.00    -0.192 F 
ATOM      9  F   *** d   1     -12.151   2.976   7.127  0.00  0.00    -0.192 F 
BRANCH   7  10
ATOM     10  C   *** d   1     -14.332   2.328   6.780  0.00  0.00     0.396 C 
ATOM     11  F   *** d   1     -15.183   2.490   5.754  0.00  0.00    -0.187 F 
ATOM     12  F   *** d   1     -15.068   2.364   7.900  0.00  0.00    -0.187 F 
BRANCH  10  13
ATOM     13  C   *** d   1     -13.639   0.942   6.686  0.00  0.00     0.222 C 
ATOM     14  O   *** d   1     -13.642   0.109   7.569  0.00  0.00    -0.645 OA
BRANCH  13  15
ATOM     15  O   *** d   1     -13.036   0.778   5.486  0.00  0.00    -0.772 OA
ATOM     16  H   *** d   1     -12.080   0.944   5.518  0.00  0.00     0.167 HD
ENDBRANCH  13  15
ENDBRANCH  10  13
ENDBRANCH   7  10
ENDBRANCH   4   7
ENDBRANCH   3   4
BRANCH   3  17
ATOM     17  C   *** d   1     -12.114   6.459   4.546  0.00  0.00     0.387 C 
ATOM     18  F   *** d   1     -11.229   7.360   4.929  0.00  0.00    -0.192 F 
ATOM     19  F   *** d   1     -13.285   7.032   4.752  0.00  0.00    -0.192 F 
BRANCH  17  20
ATOM     20  C   *** d   1     -11.950   6.246   3.049  0.00  0.00     0.409 C 
ATOM     21  F   *** d   1     -13.037   5.647   2.589  0.00  0.00    -0.189 F 
ATOM     22  F   *** d   1     -10.966   5.382   2.855  0.00  0.00    -0.189 F 
BRANCH  20  23
ATOM     23  C   *** d   1     -11.686   7.468   2.205  0.00  0.00     0.461 C 
ATOM     24  F   *** d   1     -11.997   7.256   0.957  0.00  0.00    -0.165 F 
ATOM     25  F   *** d   1     -10.431   7.834   2.241  0.00  0.00    -0.165 F 
ATOM     26  F   *** d   1     -12.402   8.482   2.608  0.00  0.00    -0.165 F 
ENDBRANCH  20  23
ENDBRANCH  17  20
ENDBRANCH   3  17
TORSDOF 8
ENDMDL
MODEL 18
REMARK VINA RESULT:      -6.0     19.970     24.149
REMARK  8 active torsions:
REMARK  status: ('A' for Active; 'I' for Inactive)
REMARK    1  A    between atoms: O_16  and  C_25 
REMARK    2  A    between atoms: C_18  and  C_19 
REMARK    3  A    between atoms: C_18  and  C_20 
REMARK    4  A    between atoms: C_19  and  C_21 
REMARK    5  A    between atoms: C_20  and  C_22 
REMARK    6  A    between atoms: C_21  and  C_23 
REMARK    7  A    between atoms: C_22  and  C_24 
REMARK    8  A    between atoms: C_23  and  C_25 
ROOT
ATOM      1  F   *** d   1     -13.057   1.452   6.953  0.00  0.00    -0.192 F 
ATOM      2  F   *** d   1     -14.431   2.880   7.627  0.00  0.00    -0.192 F 
ATOM      3  C   *** d   1     -13.944   2.334   6.528  0.00  0.00     0.384 C 
ENDROOT
BRANCH   3   4
ATOM      4  C   *** d   1     -13.206   3.409   5.745  0.00  0.00     0.385 C 
ATOM      5  F   *** d   1     -14.084   4.092   5.034  0.00  0.00    -0.192 F 
ATOM      6  F   *** d   1     -12.432   2.821   4.851  0.00  0.00    -0.192 F 
BRANCH   4   7
ATOM      7  C   *** d   1     -12.355   4.393   6.527  0.00  0.00     0.388 C 
ATOM      8  F   *** d   1     -11.836   3.784   7.580  0.00  0.00    -0.192 F 
ATOM      9  F   *** d   1     -13.130   5.333   7.036  0.00  0.00    -0.192 F 
BRANCH   7  10
ATOM     10  C   *** d   1     -11.200   5.060   5.812  0.00  0.00     0.396 C 
ATOM     11  F   *** d   1     -10.305   4.133   5.436  0.00  0.00    -0.187 F 
ATOM     12  F   *** d   1     -10.568   5.884   6.659  0.00  0.00    -0.187 F 
BRANCH  10  13
ATOM     13  C   *** d   1     -11.669   5.879   4.580  0.00  0.00     0.222 C 
ATOM     14  O   *** d   1     -12.338   6.891   4.639  0.00  0.00    -0.645 OA
BRANCH  13  15
ATOM     15  O   *** d   1     -11.231   5.323   3.427  0.00  0.00    -0.772 OA
ATOM     16  H   *** d   1     -10.977   5.982   2.761  0.00  0.00     0.167 HD
ENDBRANCH  13  15
ENDBRANCH  10  13
ENDBRANCH   7  10
ENDBRANCH   4   7
ENDBRANCH   3   4
BRANCH   3  17
ATOM     17  C   *** d   1     -15.064   1.589   5.822  0.00  0.00     0.387 C 
ATOM     18  F   *** d   1     -14.740   1.446   4.551  0.00  0.00    -0.192 F 
ATOM     19  F   *** d   1     -16.140   2.354   5.809  0.00  0.00    -0.192 F 
BRANCH  17  20
ATOM     20  C   *** d   1     -15.464   0.224   6.361  0.00  0.00     0.409 C 
ATOM     21  F   *** d   1     -14.443  -0.603   6.209  0.00  0.00    -0.189 F 
ATOM     22  F   *** d   1     -16.426  -0.263   5.594  0.00  0.00    -0.189 F 
BRANCH  20  23
ATOM     23  C   *** d   1     -15.921   0.160   7.797  0.00  0.00     0.461 C 
ATOM     24  F   *** d   1     -16.606  -0.926   8.027  0.00  0.00    -0.165 F 
ATOM     25  F   *** d   1     -16.673   1.177   8.126  0.00  0.00    -0.165 F 
ATOM     26  F   *** d   1     -14.904   0.145   8.615  0.00  0.00    -0.165 F 
ENDBRANCH  20  23
ENDBRANCH  17  20
ENDBRANCH   3  17
TORSDOF 8
ENDMDL
MODEL 19
REMARK VINA RESULT:      -6.0      1.920      3.149
REMARK  8 active torsions:
REMARK  status: ('A' for Active; 'I' for Inactive)
REMARK    1  A    between atoms: O_16  and  C_25 
REMARK    2  A    between atoms: C_18  and  C_19 
REMARK    3  A    between atoms: C_18  and  C_20 
REMARK    4  A    between atoms: C_19  and  C_21 
REMARK    5  A    between atoms: C_20  and  C_22 
REMARK    6  A    between atoms: C_21  and  C_23 
REMARK    7  A    between atoms: C_22  and  C_24 
REMARK    8  A    between atoms: C_23  and  C_25 
ROOT
ATOM      1  F   *** d   1       6.634  12.138   0.435  0.00  0.00    -0.192 F 
ATOM      2  F   *** d   1       4.813  12.905  -0.255  0.00  0.00    -0.192 F 
ATOM      3  C   *** d   1       5.895  13.232   0.427  0.00  0.00     0.384 C 
ENDROOT
BRANCH   3   4
ATOM      4  C   *** d   1       5.485  13.540   1.858  0.00  0.00     0.385 C 
ATOM      5  F   *** d   1       5.104  14.802   1.928  0.00  0.00    -0.192 F 
ATOM      6  F   *** d   1       6.557  13.469   2.627  0.00  0.00    -0.192 F 
BRANCH   4   7
ATOM      7  C   *** d   1       4.403  12.678   2.483  0.00  0.00     0.388 C 
ATOM      8  F   *** d   1       4.532  11.434   2.056  0.00  0.00    -0.192 F 
ATOM      9  F   *** d   1       3.223  13.063   2.033  0.00  0.00    -0.192 F 
BRANCH   7  10
ATOM     10  C   *** d   1       4.337  12.601   3.993  0.00  0.00     0.396 C 
ATOM     11  F   *** d   1       3.055  12.560   4.389  0.00  0.00    -0.187 F 
ATOM     12  F   *** d   1       4.867  13.715   4.520  0.00  0.00    -0.187 F 
BRANCH  10  13
ATOM     13  C   *** d   1       5.108  11.374   4.551  0.00  0.00     0.222 C 
ATOM     14  O   *** d   1       6.318  11.277   4.583  0.00  0.00    -0.645 OA
BRANCH  13  15
ATOM     15  O   *** d   1       4.255  10.426   5.003  0.00  0.00    -0.772 OA
ATOM     16  H   *** d   1       3.545  10.789   5.556  0.00  0.00     0.167 HD
ENDBRANCH  13  15
ENDBRANCH  10  13
ENDBRANCH   7  10
ENDBRANCH   4   7
ENDBRANCH   3   4
BRANCH   3  17
ATOM     17  C   *** d   1       6.641  14.311  -0.342  0.00  0.00     0.387 C 
ATOM     18  F   *** d   1       5.867  15.377  -0.431  0.00  0.00    -0.192 F 
ATOM     19  F   *** d   1       6.801  13.909  -1.589  0.00  0.00    -0.192 F 
BRANCH  17  20
ATOM     20  C   *** d   1       7.995  14.757   0.188  0.00  0.00     0.409 C 
ATOM     21  F   *** d   1       8.606  13.707   0.712  0.00  0.00    -0.189 F 
ATOM     22  F   *** d   1       7.795  15.586   1.200  0.00  0.00    -0.189 F 
BRANCH  20  23
ATOM     23  C   *** d   1       8.933  15.416  -0.792  0.00  0.00     0.461 C 
ATOM     24  F   *** d   1       9.700  16.287  -0.198  0.00  0.00    -0.165 F 
ATOM     25  F   *** d   1       8.295  16.039  -1.748  0.00  0.00    -0.165 F 
ATOM     26  F   *** d   1       9.720  14.539  -1.353  0.00  0.00    -0.165 F 
ENDBRANCH  20  23
ENDBRANCH  17  20
ENDBRANCH   3  17
TORSDOF 8
ENDMDL
MODEL 20
REMARK VINA RESULT:      -5.9      3.806      6.218
REMARK  8 active torsions:
REMARK  status: ('A' for Active; 'I' for Inactive)
REMARK    1  A    between atoms: O_16  and  C_25 
REMARK    2  A    between atoms: C_18  and  C_19 
REMARK    3  A    between atoms: C_18  and  C_20 
REMARK    4  A    between atoms: C_19  and  C_21 
REMARK    5  A    between atoms: C_20  and  C_22 
REMARK    6  A    between atoms: C_21  and  C_23 
REMARK    7  A    between atoms: C_22  and  C_24 
REMARK    8  A    between atoms: C_23  and  C_25 
ROOT
ATOM      1  F   *** d   1       6.327  13.166   2.893  0.00  0.00    -0.192 F 
ATOM      2  F   *** d   1       5.345  11.359   3.285  0.00  0.00    -0.192 F 
ATOM      3  C   *** d   1       5.126  12.620   2.960  0.00  0.00     0.384 C 
ENDROOT
BRANCH   3   4
ATOM      4  C   *** d   1       4.366  13.283   4.097  0.00  0.00     0.385 C 
ATOM      5  F   *** d   1       5.007  13.053   5.227  0.00  0.00    -0.192 F 
ATOM      6  F   *** d   1       3.204  12.671   4.238  0.00  0.00    -0.192 F 
BRANCH   4   7
ATOM      7  C   *** d   1       4.100  14.774   3.993  0.00  0.00     0.388 C 
ATOM      8  F   *** d   1       3.172  14.991   3.077  0.00  0.00    -0.192 F 
ATOM      9  F   *** d   1       5.177  15.379   3.526  0.00  0.00    -0.192 F 
BRANCH   7  10
ATOM     10  C   *** d   1       3.644  15.505   5.238  0.00  0.00     0.396 C 
ATOM     11  F   *** d   1       3.062  14.640   6.083  0.00  0.00    -0.187 F 
ATOM     12  F   *** d   1       2.710  16.408   4.907  0.00  0.00    -0.187 F 
BRANCH  10  13
ATOM     13  C   *** d   1       4.814  16.238   5.947  0.00  0.00     0.222 C 
ATOM     14  O   *** d   1       5.654  15.693   6.634  0.00  0.00    -0.645 OA
BRANCH  13  15
ATOM     15  O   *** d   1       4.782  17.567   5.696  0.00  0.00    -0.772 OA
ATOM     16  H   *** d   1       5.447  17.846   5.047  0.00  0.00     0.167 HD
ENDBRANCH  13  15
ENDBRANCH  10  13
ENDBRANCH   7  10
ENDBRANCH   4   7
ENDBRANCH   3   4
BRANCH   3  17
ATOM     17  C   *** d   1       4.501  12.659   1.575  0.00  0.00     0.387 C 
ATOM     18  F   *** d   1       4.728  13.845   1.043  0.00  0.00    -0.192 F 
ATOM     19  F   *** d   1       3.188  12.594   1.700  0.00  0.00    -0.192 F 
BRANCH  17  20
ATOM     20  C   *** d   1       4.931  11.603   0.568  0.00  0.00     0.409 C 
ATOM     21  F   *** d   1       6.184  11.264   0.825  0.00  0.00    -0.189 F 
ATOM     22  F   *** d   1       4.958  12.157  -0.633  0.00  0.00    -0.189 F 
BRANCH  20  23
ATOM     23  C   *** d   1       4.102  10.345   0.496  0.00  0.00     0.461 C 
ATOM     24  F   *** d   1       2.869  10.611   0.163  0.00  0.00    -0.165 F 
ATOM     25  F   *** d   1       4.072   9.703   1.634  0.00  0.00    -0.165 F 
ATOM     26  F   *** d   1       4.568   9.524  -0.405  0.00  0.00    -0.165 F 
ENDBRANCH  20  23
ENDBRANCH  17  20
ENDBRANCH   3  17
TORSDOF 8
ENDMDL
