MODEL 1
REMARK VINA RESULT:      -7.7      0.000      0.000
REMARK  8 active torsions:
REMARK  status: ('A' for Active; 'I' for Inactive)
REMARK    1  A    between atoms: C_3  and  C_4 
REMARK    2  A    between atoms: C_3  and  C_17 
REMARK    3  A    between atoms: C_4  and  C_7 
REMARK    4  A    between atoms: C_7  and  C_10 
REMARK    5  A    between atoms: C_10  and  C_13 
REMARK    6  A    between atoms: C_13  and  O_15 
REMARK    7  A    between atoms: C_17  and  C_20 
REMARK    8  A    between atoms: C_20  and  C_23 
ROOT
ATOM      1  F   *** d   1       0.182  -0.374  -9.868  0.00  0.00    -0.192 F 
ATOM      2  F   *** d   1       0.806  -2.184  -9.023  0.00  0.00    -0.192 F 
ATOM      3  C   *** d   1      -0.265  -1.440  -9.230  0.00  0.00     0.384 C 
ENDROOT
BRANCH   3   4
ATOM      4  C   *** d   1      -0.807  -0.994  -7.881  0.00  0.00     0.385 C 
ATOM      5  F   *** d   1      -1.218  -2.057  -7.216  0.00  0.00    -0.192 F 
ATOM      6  F   *** d   1      -1.900  -0.280  -8.084  0.00  0.00    -0.192 F 
BRANCH   4   7
ATOM      7  C   *** d   1       0.115  -0.193  -6.980  0.00  0.00     0.388 C 
ATOM      8  F   *** d   1       0.925   0.542  -7.723  0.00  0.00    -0.192 F 
ATOM      9  F   *** d   1       0.917  -1.018  -6.331  0.00  0.00    -0.192 F 
BRANCH   7  10
ATOM     10  C   *** d   1      -0.512   0.751  -5.977  0.00  0.00     0.396 C 
ATOM     11  F   *** d   1      -1.567   0.159  -5.397  0.00  0.00    -0.187 F 
ATOM     12  F   *** d   1      -0.980   1.833  -6.616  0.00  0.00    -0.187 F 
BRANCH  10  13
ATOM     13  C   *** d   1       0.502   1.214  -4.897  0.00  0.00     0.222 C 
ATOM     14  O   *** d   1       1.407   2.000  -5.092  0.00  0.00    -0.645 OA
BRANCH  13  15
ATOM     15  O   *** d   1       0.244   0.632  -3.703  0.00  0.00    -0.772 OA
ATOM     16  H   *** d   1       1.006   0.151  -3.344  0.00  0.00     0.167 HD
ENDBRANCH  13  15
ENDBRANCH  10  13
ENDBRANCH   7  10
ENDBRANCH   4   7
ENDBRANCH   3   4
BRANCH   3  17
ATOM     17  C   *** d   1      -1.205  -2.196 -10.154  0.00  0.00     0.387 C 
ATOM     18  F   *** d   1      -2.217  -1.407 -10.463  0.00  0.00    -0.192 F 
ATOM     19  F   *** d   1      -1.752  -3.192  -9.481  0.00  0.00    -0.192 F 
BRANCH  17  20
ATOM     20  C   *** d   1      -0.635  -2.758 -11.447  0.00  0.00     0.409 C 
ATOM     21  F   *** d   1       0.430  -3.486 -11.155  0.00  0.00    -0.189 F 
ATOM     22  F   *** d   1      -0.181  -1.751 -12.176  0.00  0.00    -0.189 F 
BRANCH  20  23
ATOM     23  C   *** d   1      -1.560  -3.588 -12.302  0.00  0.00     0.461 C 
ATOM     24  F   *** d   1      -2.727  -3.019 -12.425  0.00  0.00    -0.165 F 
ATOM     25  F   *** d   1      -1.755  -4.783 -11.809  0.00  0.00    -0.165 F 
ATOM     26  F   *** d   1      -1.083  -3.734 -13.508  0.00  0.00    -0.165 F 
ENDBRANCH  20  23
ENDBRANCH  17  20
ENDBRANCH   3  17
TORSDOF 8
ENDMDL
MODEL 2
REMARK VINA RESULT:      -7.6      1.383      2.331
REMARK  8 active torsions:
REMARK  status: ('A' for Active; 'I' for Inactive)
REMARK    1  A    between atoms: C_3  and  C_4 
REMARK    2  A    between atoms: C_3  and  C_17 
REMARK    3  A    between atoms: C_4  and  C_7 
REMARK    4  A    between atoms: C_7  and  C_10 
REMARK    5  A    between atoms: C_10  and  C_13 
REMARK    6  A    between atoms: C_13  and  O_15 
REMARK    7  A    between atoms: C_17  and  C_20 
REMARK    8  A    between atoms: C_20  and  C_23 
ROOT
ATOM      1  F   *** d   1       0.421  -2.061  -7.333  0.00  0.00    -0.192 F 
ATOM      2  F   *** d   1      -1.535  -2.013  -6.590  0.00  0.00    -0.192 F 
ATOM      3  C   *** d   1      -0.754  -1.486  -7.515  0.00  0.00     0.384 C 
ENDROOT
BRANCH   3   4
ATOM      4  C   *** d   1      -0.604  -0.001  -7.228  0.00  0.00     0.385 C 
ATOM      5  F   *** d   1      -1.195   0.271  -6.079  0.00  0.00    -0.192 F 
ATOM      6  F   *** d   1      -1.296   0.673  -8.130  0.00  0.00    -0.192 F 
BRANCH   4   7
ATOM      7  C   *** d   1       0.800   0.573  -7.191  0.00  0.00     0.388 C 
ATOM      8  F   *** d   1       1.517   0.042  -8.168  0.00  0.00    -0.192 F 
ATOM      9  F   *** d   1       1.404   0.181  -6.085  0.00  0.00    -0.192 F 
BRANCH   7  10
ATOM     10  C   *** d   1       0.961   2.073  -7.317  0.00  0.00     0.396 C 
ATOM     11  F   *** d   1       0.431   2.489  -8.478  0.00  0.00    -0.187 F 
ATOM     12  F   *** d   1       2.265   2.380  -7.357  0.00  0.00    -0.187 F 
BRANCH  10  13
ATOM     13  C   *** d   1       0.309   2.832  -6.130  0.00  0.00     0.222 C 
ATOM     14  O   *** d   1       0.782   2.903  -5.014  0.00  0.00    -0.645 OA
BRANCH  13  15
ATOM     15  O   *** d   1      -0.856   3.413  -6.502  0.00  0.00    -0.772 OA
ATOM     16  H   *** d   1      -1.526   3.398  -5.801  0.00  0.00     0.167 HD
ENDBRANCH  13  15
ENDBRANCH  10  13
ENDBRANCH   7  10
ENDBRANCH   4   7
ENDBRANCH   3   4
BRANCH   3  17
ATOM     17  C   *** d   1      -1.283  -1.892  -8.881  0.00  0.00     0.387 C 
ATOM     18  F   *** d   1      -2.301  -1.111  -9.188  0.00  0.00    -0.192 F 
ATOM     19  F   *** d   1      -1.805  -3.102  -8.791  0.00  0.00    -0.192 F 
BRANCH  17  20
ATOM     20  C   *** d   1      -0.313  -1.883 -10.053  0.00  0.00     0.409 C 
ATOM     21  F   *** d   1       0.843  -2.381  -9.644  0.00  0.00    -0.189 F 
ATOM     22  F   *** d   1      -0.058  -0.625 -10.374  0.00  0.00    -0.189 F 
BRANCH  20  23
ATOM     23  C   *** d   1      -0.736  -2.618 -11.300  0.00  0.00     0.461 C 
ATOM     24  F   *** d   1      -0.560  -3.904 -11.172  0.00  0.00    -0.165 F 
ATOM     25  F   *** d   1      -0.067  -2.233 -12.355  0.00  0.00    -0.165 F 
ATOM     26  F   *** d   1      -2.003  -2.433 -11.550  0.00  0.00    -0.165 F 
ENDBRANCH  20  23
ENDBRANCH  17  20
ENDBRANCH   3  17
TORSDOF 8
ENDMDL
MODEL 3
REMARK VINA RESULT:      -7.5      3.187      4.877
REMARK  8 active torsions:
REMARK  status: ('A' for Active; 'I' for Inactive)
REMARK    1  A    between atoms: C_3  and  C_4 
REMARK    2  A    between atoms: C_3  and  C_17 
REMARK    3  A    between atoms: C_4  and  C_7 
REMARK    4  A    between atoms: C_7  and  C_10 
REMARK    5  A    between atoms: C_10  and  C_13 
REMARK    6  A    between atoms: C_13  and  O_15 
REMARK    7  A    between atoms: C_17  and  C_20 
REMARK    8  A    between atoms: C_20  and  C_23 
ROOT
ATOM      1  F   *** d   1       0.471   0.574  -7.312  0.00  0.00    -0.192 F 
ATOM      2  F   *** d   1      -0.752   1.922  -8.346  0.00  0.00    -0.192 F 
ATOM      3  C   *** d   1       0.207   1.031  -8.522  0.00  0.00     0.384 C 
ENDROOT
BRANCH   3   4
ATOM      4  C   *** d   1       1.443   1.752  -9.037  0.00  0.00     0.385 C 
ATOM      5  F   *** d   1       1.690   1.344 -10.268  0.00  0.00    -0.192 F 
ATOM      6  F   *** d   1       2.487   1.351  -8.334  0.00  0.00    -0.192 F 
BRANCH   4   7
ATOM      7  C   *** d   1       1.429   3.269  -9.030  0.00  0.00     0.388 C 
ATOM      8  F   *** d   1       2.673   3.719  -9.038  0.00  0.00    -0.192 F 
ATOM      9  F   *** d   1       0.929   3.697  -7.885  0.00  0.00    -0.192 F 
BRANCH   7  10
ATOM     10  C   *** d   1       0.716   3.981 -10.159  0.00  0.00     0.396 C 
ATOM     11  F   *** d   1      -0.025   3.102 -10.852  0.00  0.00    -0.187 F 
ATOM     12  F   *** d   1       1.620   4.480 -11.014  0.00  0.00    -0.187 F 
BRANCH  10  13
ATOM     13  C   *** d   1      -0.177   5.144  -9.646  0.00  0.00     0.222 C 
ATOM     14  O   *** d   1      -1.260   4.999  -9.116  0.00  0.00    -0.645 OA
BRANCH  13  15
ATOM     15  O   *** d   1       0.412   6.342  -9.860  0.00  0.00    -0.772 OA
ATOM     16  H   *** d   1       1.349   6.354  -9.608  0.00  0.00     0.167 HD
ENDBRANCH  13  15
ENDBRANCH  10  13
ENDBRANCH   7  10
ENDBRANCH   4   7
ENDBRANCH   3   4
BRANCH   3  17
ATOM     17  C   *** d   1      -0.345  -0.111  -9.360  0.00  0.00     0.387 C 
ATOM     18  F   *** d   1       0.618  -0.991  -9.558  0.00  0.00    -0.192 F 
ATOM     19  F   *** d   1      -0.632   0.347 -10.565  0.00  0.00    -0.192 F 
BRANCH  17  20
ATOM     20  C   *** d   1      -1.563  -0.856  -8.836  0.00  0.00     0.409 C 
ATOM     21  F   *** d   1      -2.287  -1.254  -9.869  0.00  0.00    -0.189 F 
ATOM     22  F   *** d   1      -2.328   0.004  -8.183  0.00  0.00    -0.189 F 
BRANCH  20  23
ATOM     23  C   *** d   1      -1.310  -2.044  -7.943  0.00  0.00     0.461 C 
ATOM     24  F   *** d   1      -0.041  -2.167  -7.669  0.00  0.00    -0.165 F 
ATOM     25  F   *** d   1      -1.706  -3.166  -8.485  0.00  0.00    -0.165 F 
ATOM     26  F   *** d   1      -1.933  -1.919  -6.804  0.00  0.00    -0.165 F 
ENDBRANCH  20  23
ENDBRANCH  17  20
ENDBRANCH   3  17
TORSDOF 8
ENDMDL
MODEL 4
REMARK VINA RESULT:      -7.5      1.307      2.556
REMARK  8 active torsions:
REMARK  status: ('A' for Active; 'I' for Inactive)
REMARK    1  A    between atoms: C_3  and  C_4 
REMARK    2  A    between atoms: C_3  and  C_17 
REMARK    3  A    between atoms: C_4  and  C_7 
REMARK    4  A    between atoms: C_7  and  C_10 
REMARK    5  A    between atoms: C_10  and  C_13 
REMARK    6  A    between atoms: C_13  and  O_15 
REMARK    7  A    between atoms: C_17  and  C_20 
REMARK    8  A    between atoms: C_20  and  C_23 
ROOT
ATOM      1  F   *** d   1      -0.055  -1.841  -7.690  0.00  0.00    -0.192 F 
ATOM      2  F   *** d   1      -1.104  -0.201  -8.458  0.00  0.00    -0.192 F 
ATOM      3  C   *** d   1      -0.003  -0.910  -8.625  0.00  0.00     0.384 C 
ENDROOT
BRANCH   3   4
ATOM      4  C   *** d   1       1.192  -0.015  -8.337  0.00  0.00     0.385 C 
ATOM      5  F   *** d   1       1.024   1.132  -8.969  0.00  0.00    -0.192 F 
ATOM      6  F   *** d   1       2.263  -0.552  -8.893  0.00  0.00    -0.192 F 
BRANCH   4   7
ATOM      7  C   *** d   1       1.518   0.283  -6.885  0.00  0.00     0.388 C 
ATOM      8  F   *** d   1       2.777   0.675  -6.790  0.00  0.00    -0.192 F 
ATOM      9  F   *** d   1       1.465  -0.837  -6.187  0.00  0.00    -0.192 F 
BRANCH   7  10
ATOM     10  C   *** d   1       0.693   1.331  -6.170  0.00  0.00     0.396 C 
ATOM     11  F   *** d   1       0.064   2.103  -7.070  0.00  0.00    -0.187 F 
ATOM     12  F   *** d   1       1.505   2.137  -5.472  0.00  0.00    -0.187 F 
BRANCH  10  13
ATOM     13  C   *** d   1      -0.337   0.700  -5.195  0.00  0.00     0.222 C 
ATOM     14  O   *** d   1      -1.439   0.303  -5.518  0.00  0.00    -0.645 OA
BRANCH  13  15
ATOM     15  O   *** d   1       0.154   0.642  -3.936  0.00  0.00    -0.772 OA
ATOM     16  H   *** d   1      -0.081  -0.179  -3.475  0.00  0.00     0.167 HD
ENDBRANCH  13  15
ENDBRANCH  10  13
ENDBRANCH   7  10
ENDBRANCH   4   7
ENDBRANCH   3   4
BRANCH   3  17
ATOM     17  C   *** d   1      -0.066  -1.588  -9.983  0.00  0.00     0.387 C 
ATOM     18  F   *** d   1       0.831  -2.556 -10.014  0.00  0.00    -0.192 F 
ATOM     19  F   *** d   1       0.334  -0.731 -10.904  0.00  0.00    -0.192 F 
BRANCH  17  20
ATOM     20  C   *** d   1      -1.400  -2.169 -10.429  0.00  0.00     0.409 C 
ATOM     21  F   *** d   1      -2.253  -1.173 -10.607  0.00  0.00    -0.189 F 
ATOM     22  F   *** d   1      -1.898  -2.883  -9.432  0.00  0.00    -0.189 F 
BRANCH  20  23
ATOM     23  C   *** d   1      -1.397  -3.022 -11.673  0.00  0.00     0.461 C 
ATOM     24  F   *** d   1      -1.136  -4.268 -11.389  0.00  0.00    -0.165 F 
ATOM     25  F   *** d   1      -0.510  -2.623 -12.546  0.00  0.00    -0.165 F 
ATOM     26  F   *** d   1      -2.562  -3.003 -12.260  0.00  0.00    -0.165 F 
ENDBRANCH  20  23
ENDBRANCH  17  20
ENDBRANCH   3  17
TORSDOF 8
ENDMDL
MODEL 5
REMARK VINA RESULT:      -7.5      1.205      2.515
REMARK  8 active torsions:
REMARK  status: ('A' for Active; 'I' for Inactive)
REMARK    1  A    between atoms: C_3  and  C_4 
REMARK    2  A    between atoms: C_3  and  C_17 
REMARK    3  A    between atoms: C_4  and  C_7 
REMARK    4  A    between atoms: C_7  and  C_10 
REMARK    5  A    between atoms: C_10  and  C_13 
REMARK    6  A    between atoms: C_13  and  O_15 
REMARK    7  A    between atoms: C_17  and  C_20 
REMARK    8  A    between atoms: C_20  and  C_23 
ROOT
ATOM      1  F   *** d   1      -1.815  -3.137  -8.612  0.00  0.00    -0.192 F 
ATOM      2  F   *** d   1      -2.182  -1.202  -9.320  0.00  0.00    -0.192 F 
ATOM      3  C   *** d   1      -1.206  -2.047  -9.041  0.00  0.00     0.384 C 
ENDROOT
BRANCH   3   4
ATOM      4  C   *** d   1      -0.390  -1.475  -7.893  0.00  0.00     0.385 C 
ATOM      5  F   *** d   1       0.850  -1.915  -7.994  0.00  0.00    -0.192 F 
ATOM      6  F   *** d   1      -0.839  -1.991  -6.762  0.00  0.00    -0.192 F 
BRANCH   4   7
ATOM      7  C   *** d   1      -0.351   0.033  -7.736  0.00  0.00     0.388 C 
ATOM      8  F   *** d   1      -1.585   0.495  -7.626  0.00  0.00    -0.192 F 
ATOM      9  F   *** d   1       0.109   0.577  -8.849  0.00  0.00    -0.192 F 
BRANCH   7  10
ATOM     10  C   *** d   1       0.421   0.609  -6.569  0.00  0.00     0.396 C 
ATOM     11  F   *** d   1       1.360   1.455  -7.020  0.00  0.00    -0.187 F 
ATOM     12  F   *** d   1       1.066  -0.378  -5.931  0.00  0.00    -0.187 F 
BRANCH  10  13
ATOM     13  C   *** d   1      -0.506   1.332  -5.555  0.00  0.00     0.222 C 
ATOM     14  O   *** d   1      -1.109   0.780  -4.657  0.00  0.00    -0.645 OA
BRANCH  13  15
ATOM     15  O   *** d   1      -0.550   2.663  -5.796  0.00  0.00    -0.772 OA
ATOM     16  H   *** d   1      -0.073   3.184  -5.130  0.00  0.00     0.167 HD
ENDBRANCH  13  15
ENDBRANCH  10  13
ENDBRANCH   7  10
ENDBRANCH   4   7
ENDBRANCH   3   4
BRANCH   3  17
ATOM     17  C   *** d   1      -0.474  -2.380 -10.331  0.00  0.00     0.387 C 
ATOM     18  F   *** d   1       0.616  -3.062 -10.033  0.00  0.00    -0.192 F 
ATOM     19  F   *** d   1      -0.030  -1.258 -10.868  0.00  0.00    -0.192 F 
BRANCH  17  20
ATOM     20  C   *** d   1      -1.231  -3.148 -11.403  0.00  0.00     0.409 C 
ATOM     21  F   *** d   1      -2.294  -2.443 -11.753  0.00  0.00    -0.189 F 
ATOM     22  F   *** d   1      -1.710  -4.257 -10.862  0.00  0.00    -0.189 F 
BRANCH  20  23
ATOM     23  C   *** d   1      -0.470  -3.516 -12.652  0.00  0.00     0.461 C 
ATOM     24  F   *** d   1       0.296  -4.552 -12.449  0.00  0.00    -0.165 F 
ATOM     25  F   *** d   1       0.291  -2.541 -13.076  0.00  0.00    -0.165 F 
ATOM     26  F   *** d   1      -1.282  -3.831 -13.623  0.00  0.00    -0.165 F 
ENDBRANCH  20  23
ENDBRANCH  17  20
ENDBRANCH   3  17
TORSDOF 8
ENDMDL
MODEL 6
REMARK VINA RESULT:      -7.5      1.032      1.907
REMARK  8 active torsions:
REMARK  status: ('A' for Active; 'I' for Inactive)
REMARK    1  A    between atoms: C_3  and  C_4 
REMARK    2  A    between atoms: C_3  and  C_17 
REMARK    3  A    between atoms: C_4  and  C_7 
REMARK    4  A    between atoms: C_7  and  C_10 
REMARK    5  A    between atoms: C_10  and  C_13 
REMARK    6  A    between atoms: C_13  and  O_15 
REMARK    7  A    between atoms: C_17  and  C_20 
REMARK    8  A    between atoms: C_20  and  C_23 
ROOT
ATOM      1  F   *** d   1      -2.081  -0.708  -8.768  0.00  0.00    -0.192 F 
ATOM      2  F   *** d   1      -1.498  -0.369 -10.750  0.00  0.00    -0.192 F 
ATOM      3  C   *** d   1      -1.054  -0.819  -9.591  0.00  0.00     0.384 C 
ENDROOT
BRANCH   3   4
ATOM      4  C   *** d   1       0.047   0.110  -9.104  0.00  0.00     0.385 C 
ATOM      5  F   *** d   1      -0.132   1.300  -9.648  0.00  0.00    -0.192 F 
ATOM      6  F   *** d   1       1.199  -0.313  -9.591  0.00  0.00    -0.192 F 
BRANCH   4   7
ATOM      7  C   *** d   1       0.208   0.289  -7.606  0.00  0.00     0.388 C 
ATOM      8  F   *** d   1       1.493   0.249  -7.295  0.00  0.00    -0.192 F 
ATOM      9  F   *** d   1      -0.316  -0.751  -6.982  0.00  0.00    -0.192 F 
BRANCH   7  10
ATOM     10  C   *** d   1      -0.340   1.551  -6.975  0.00  0.00     0.396 C 
ATOM     11  F   *** d   1      -1.604   1.747  -7.380  0.00  0.00    -0.187 F 
ATOM     12  F   *** d   1       0.369   2.606  -7.401  0.00  0.00    -0.187 F 
BRANCH  10  13
ATOM     13  C   *** d   1      -0.277   1.504  -5.424  0.00  0.00     0.222 C 
ATOM     14  O   *** d   1      -1.087   0.937  -4.719  0.00  0.00    -0.645 OA
BRANCH  13  15
ATOM     15  O   *** d   1       0.803   2.173  -4.959  0.00  0.00    -0.772 OA
ATOM     16  H   *** d   1       1.560   2.137  -5.564  0.00  0.00     0.167 HD
ENDBRANCH  13  15
ENDBRANCH  10  13
ENDBRANCH   7  10
ENDBRANCH   4   7
ENDBRANCH   3   4
BRANCH   3  17
ATOM     17  C   *** d   1      -0.717  -2.294  -9.744  0.00  0.00     0.387 C 
ATOM     18  F   *** d   1      -1.717  -3.007  -9.262  0.00  0.00    -0.192 F 
ATOM     19  F   *** d   1       0.306  -2.578  -8.958  0.00  0.00    -0.192 F 
BRANCH  17  20
ATOM     20  C   *** d   1      -0.399  -2.811 -11.138  0.00  0.00     0.409 C 
ATOM     21  F   *** d   1       0.547  -3.731 -11.038  0.00  0.00    -0.189 F 
ATOM     22  F   *** d   1       0.144  -1.826 -11.835  0.00  0.00    -0.189 F 
BRANCH  20  23
ATOM     23  C   *** d   1      -1.542  -3.387 -11.935  0.00  0.00     0.461 C 
ATOM     24  F   *** d   1      -2.581  -2.598 -11.907  0.00  0.00    -0.165 F 
ATOM     25  F   *** d   1      -1.923  -4.554 -11.486  0.00  0.00    -0.165 F 
ATOM     26  F   *** d   1      -1.214  -3.536 -13.189  0.00  0.00    -0.165 F 
ENDBRANCH  20  23
ENDBRANCH  17  20
ENDBRANCH   3  17
TORSDOF 8
ENDMDL
MODEL 7
REMARK VINA RESULT:      -7.4      1.124      2.055
REMARK  8 active torsions:
REMARK  status: ('A' for Active; 'I' for Inactive)
REMARK    1  A    between atoms: C_3  and  C_4 
REMARK    2  A    between atoms: C_3  and  C_17 
REMARK    3  A    between atoms: C_4  and  C_7 
REMARK    4  A    between atoms: C_7  and  C_10 
REMARK    5  A    between atoms: C_10  and  C_13 
REMARK    6  A    between atoms: C_13  and  O_15 
REMARK    7  A    between atoms: C_17  and  C_20 
REMARK    8  A    between atoms: C_20  and  C_23 
ROOT
ATOM      1  F   *** d   1       0.272  -0.306  -9.300  0.00  0.00    -0.192 F 
ATOM      2  F   *** d   1       0.854  -2.256  -8.810  0.00  0.00    -0.192 F 
ATOM      3  C   *** d   1      -0.134  -1.391  -8.667  0.00  0.00     0.384 C 
ENDROOT
BRANCH   3   4
ATOM      4  C   *** d   1      -0.270  -1.057  -7.190  0.00  0.00     0.385 C 
ATOM      5  F   *** d   1       0.870  -1.334  -6.586  0.00  0.00    -0.192 F 
ATOM      6  F   *** d   1      -1.147  -1.885  -6.651  0.00  0.00    -0.192 F 
BRANCH   4   7
ATOM      7  C   *** d   1      -0.675   0.359  -6.822  0.00  0.00     0.388 C 
ATOM      8  F   *** d   1      -1.003   0.402  -5.542  0.00  0.00    -0.192 F 
ATOM      9  F   *** d   1      -1.787   0.676  -7.460  0.00  0.00    -0.192 F 
BRANCH   7  10
ATOM     10  C   *** d   1       0.332   1.467  -7.038  0.00  0.00     0.396 C 
ATOM     11  F   *** d   1       0.197   1.967  -8.276  0.00  0.00    -0.187 F 
ATOM     12  F   *** d   1       1.572   0.964  -6.959  0.00  0.00    -0.187 F 
BRANCH  10  13
ATOM     13  C   *** d   1       0.189   2.600  -5.986  0.00  0.00     0.222 C 
ATOM     14  O   *** d   1       0.895   2.724  -5.005  0.00  0.00    -0.645 OA
BRANCH  13  15
ATOM     15  O   *** d   1      -0.823   3.439  -6.305  0.00  0.00    -0.772 OA
ATOM     16  H   *** d   1      -1.477   3.035  -6.898  0.00  0.00     0.167 HD
ENDBRANCH  13  15
ENDBRANCH  10  13
ENDBRANCH   7  10
ENDBRANCH   4   7
ENDBRANCH   3   4
BRANCH   3  17
ATOM     17  C   *** d   1      -1.359  -1.936  -9.384  0.00  0.00     0.387 C 
ATOM     18  F   *** d   1      -2.380  -1.136  -9.141  0.00  0.00    -0.192 F 
ATOM     19  F   *** d   1      -1.696  -3.087  -8.831  0.00  0.00    -0.192 F 
BRANCH  17  20
ATOM     20  C   *** d   1      -1.271  -2.144 -10.888  0.00  0.00     0.409 C 
ATOM     21  F   *** d   1      -0.428  -1.255 -11.386  0.00  0.00    -0.189 F 
ATOM     22  F   *** d   1      -2.446  -1.848 -11.420  0.00  0.00    -0.189 F 
BRANCH  20  23
ATOM     23  C   *** d   1      -0.861  -3.513 -11.370  0.00  0.00     0.461 C 
ATOM     24  F   *** d   1      -1.734  -4.417 -11.021  0.00  0.00    -0.165 F 
ATOM     25  F   *** d   1       0.299  -3.881 -10.891  0.00  0.00    -0.165 F 
ATOM     26  F   *** d   1      -0.778  -3.550 -12.671  0.00  0.00    -0.165 F 
ENDBRANCH  20  23
ENDBRANCH  17  20
ENDBRANCH   3  17
TORSDOF 8
ENDMDL
MODEL 8
REMARK VINA RESULT:      -7.4      3.301      5.036
REMARK  8 active torsions:
REMARK  status: ('A' for Active; 'I' for Inactive)
REMARK    1  A    between atoms: C_3  and  C_4 
REMARK    2  A    between atoms: C_3  and  C_17 
REMARK    3  A    between atoms: C_4  and  C_7 
REMARK    4  A    between atoms: C_7  and  C_10 
REMARK    5  A    between atoms: C_10  and  C_13 
REMARK    6  A    between atoms: C_13  and  O_15 
REMARK    7  A    between atoms: C_17  and  C_20 
REMARK    8  A    between atoms: C_20  and  C_23 
ROOT
ATOM      1  F   *** d   1       2.485   0.010  -8.000  0.00  0.00    -0.192 F 
ATOM      2  F   *** d   1       2.073   1.744  -6.902  0.00  0.00    -0.192 F 
ATOM      3  C   *** d   1       1.556   0.927  -7.801  0.00  0.00     0.384 C 
ENDROOT
BRANCH   3   4
ATOM      4  C   *** d   1       1.367   1.699  -9.098  0.00  0.00     0.385 C 
ATOM      5  F   *** d   1       0.278   1.256  -9.699  0.00  0.00    -0.192 F 
ATOM      6  F   *** d   1       2.354   1.388  -9.919  0.00  0.00    -0.192 F 
BRANCH   4   7
ATOM      7  C   *** d   1       1.286   3.211  -9.013  0.00  0.00     0.388 C 
ATOM      8  F   *** d   1       2.490   3.703  -8.776  0.00  0.00    -0.192 F 
ATOM      9  F   *** d   1       0.574   3.553  -7.955  0.00  0.00    -0.192 F 
BRANCH   7  10
ATOM     10  C   *** d   1       0.751   3.964 -10.212  0.00  0.00     0.396 C 
ATOM     11  F   *** d   1      -0.419   3.431 -10.597  0.00  0.00    -0.187 F 
ATOM     12  F   *** d   1       1.597   3.821 -11.242  0.00  0.00    -0.187 F 
BRANCH  10  13
ATOM     13  C   *** d   1       0.576   5.480  -9.921  0.00  0.00     0.222 C 
ATOM     14  O   *** d   1       1.440   6.317 -10.086  0.00  0.00    -0.645 OA
BRANCH  13  15
ATOM     15  O   *** d   1      -0.669   5.749  -9.464  0.00  0.00    -0.772 OA
ATOM     16  H   *** d   1      -0.853   6.700  -9.407  0.00  0.00     0.167 HD
ENDBRANCH  13  15
ENDBRANCH  10  13
ENDBRANCH   7  10
ENDBRANCH   4   7
ENDBRANCH   3   4
BRANCH   3  17
ATOM     17  C   *** d   1       0.336   0.253  -7.195  0.00  0.00     0.387 C 
ATOM     18  F   *** d   1      -0.728   0.986  -7.466  0.00  0.00    -0.192 F 
ATOM     19  F   *** d   1       0.441   0.290  -5.880  0.00  0.00    -0.192 F 
BRANCH  17  20
ATOM     20  C   *** d   1       0.036  -1.180  -7.604  0.00  0.00     0.409 C 
ATOM     21  F   *** d   1       0.722  -1.993  -6.817  0.00  0.00    -0.189 F 
ATOM     22  F   *** d   1       0.521  -1.378  -8.819  0.00  0.00    -0.189 F 
BRANCH  20  23
ATOM     23  C   *** d   1      -1.410  -1.611  -7.591  0.00  0.00     0.461 C 
ATOM     24  F   *** d   1      -1.971  -1.345  -6.445  0.00  0.00    -0.165 F 
ATOM     25  F   *** d   1      -1.549  -2.892  -7.811  0.00  0.00    -0.165 F 
ATOM     26  F   *** d   1      -2.097  -0.980  -8.504  0.00  0.00    -0.165 F 
ENDBRANCH  20  23
ENDBRANCH  17  20
ENDBRANCH   3  17
TORSDOF 8
ENDMDL
MODEL 9
REMARK VINA RESULT:      -7.3      3.484      5.128
REMARK  8 active torsions:
REMARK  status: ('A' for Active; 'I' for Inactive)
REMARK    1  A    between atoms: C_3  and  C_4 
REMARK    2  A    between atoms: C_3  and  C_17 
REMARK    3  A    between atoms: C_4  and  C_7 
REMARK    4  A    between atoms: C_7  and  C_10 
REMARK    5  A    between atoms: C_10  and  C_13 
REMARK    6  A    between atoms: C_13  and  O_15 
REMARK    7  A    between atoms: C_17  and  C_20 
REMARK    8  A    between atoms: C_20  and  C_23 
ROOT
ATOM      1  F   *** d   1       2.049   0.986  -8.522  0.00  0.00    -0.192 F 
ATOM      2  F   *** d   1       0.903   0.767  -6.784  0.00  0.00    -0.192 F 
ATOM      3  C   *** d   1       0.825   1.136  -8.050  0.00  0.00     0.384 C 
ENDROOT
BRANCH   3   4
ATOM      4  C   *** d   1       0.477   2.616  -8.097  0.00  0.00     0.385 C 
ATOM      5  F   *** d   1       0.803   3.165  -6.942  0.00  0.00    -0.192 F 
ATOM      6  F   *** d   1      -0.836   2.736  -8.168  0.00  0.00    -0.192 F 
BRANCH   4   7
ATOM      7  C   *** d   1       1.084   3.448  -9.211  0.00  0.00     0.388 C 
ATOM      8  F   *** d   1       1.206   2.705 -10.298  0.00  0.00    -0.192 F 
ATOM      9  F   *** d   1       2.324   3.772  -8.889  0.00  0.00    -0.192 F 
BRANCH   7  10
ATOM     10  C   *** d   1       0.358   4.705  -9.638  0.00  0.00     0.396 C 
ATOM     11  F   *** d   1      -0.070   5.372  -8.554  0.00  0.00    -0.187 F 
ATOM     12  F   *** d   1      -0.734   4.372 -10.341  0.00  0.00    -0.187 F 
BRANCH  10  13
ATOM     13  C   *** d   1       1.249   5.627 -10.514  0.00  0.00     0.222 C 
ATOM     14  O   *** d   1       1.859   5.262 -11.499  0.00  0.00    -0.645 OA
BRANCH  13  15
ATOM     15  O   *** d   1       1.254   6.894 -10.042  0.00  0.00    -0.772 OA
ATOM     16  H   *** d   1       0.826   6.977  -9.175  0.00  0.00     0.167 HD
ENDBRANCH  13  15
ENDBRANCH  10  13
ENDBRANCH   7  10
ENDBRANCH   4   7
ENDBRANCH   3   4
BRANCH   3  17
ATOM     17  C   *** d   1      -0.095   0.171  -8.778  0.00  0.00     0.387 C 
ATOM     18  F   *** d   1       0.628  -0.831  -9.243  0.00  0.00    -0.192 F 
ATOM     19  F   *** d   1      -0.570   0.769  -9.856  0.00  0.00    -0.192 F 
BRANCH  17  20
ATOM     20  C   *** d   1      -1.269  -0.415  -8.009  0.00  0.00     0.409 C 
ATOM     21  F   *** d   1      -2.332  -0.410  -8.797  0.00  0.00    -0.189 F 
ATOM     22  F   *** d   1      -1.567   0.406  -7.014  0.00  0.00    -0.189 F 
BRANCH  20  23
ATOM     23  C   *** d   1      -1.098  -1.803  -7.446  0.00  0.00     0.461 C 
ATOM     24  F   *** d   1      -1.942  -2.028  -6.478  0.00  0.00    -0.165 F 
ATOM     25  F   *** d   1       0.105  -2.004  -6.974  0.00  0.00    -0.165 F 
ATOM     26  F   *** d   1      -1.317  -2.711  -8.358  0.00  0.00    -0.165 F 
ENDBRANCH  20  23
ENDBRANCH  17  20
ENDBRANCH   3  17
TORSDOF 8
ENDMDL
MODEL 10
REMARK VINA RESULT:      -7.3      1.299      2.457
REMARK  8 active torsions:
REMARK  status: ('A' for Active; 'I' for Inactive)
REMARK    1  A    between atoms: C_3  and  C_4 
REMARK    2  A    between atoms: C_3  and  C_17 
REMARK    3  A    between atoms: C_4  and  C_7 
REMARK    4  A    between atoms: C_7  and  C_10 
REMARK    5  A    between atoms: C_10  and  C_13 
REMARK    6  A    between atoms: C_13  and  O_15 
REMARK    7  A    between atoms: C_17  and  C_20 
REMARK    8  A    between atoms: C_20  and  C_23 
ROOT
ATOM      1  F   *** d   1       2.108  -0.436  -9.874  0.00  0.00    -0.192 F 
ATOM      2  F   *** d   1       0.676  -1.454  -8.736  0.00  0.00    -0.192 F 
ATOM      3  C   *** d   1       0.824  -0.438  -9.566  0.00  0.00     0.384 C 
ENDROOT
BRANCH   3   4
ATOM      4  C   *** d   1       0.514   0.846  -8.814  0.00  0.00     0.385 C 
ATOM      5  F   *** d   1       0.001   1.720  -9.660  0.00  0.00    -0.192 F 
ATOM      6  F   *** d   1       1.653   1.387  -8.419  0.00  0.00    -0.192 F 
BRANCH   4   7
ATOM      7  C   *** d   1      -0.403   0.754  -7.608  0.00  0.00     0.388 C 
ATOM      8  F   *** d   1      -1.471   0.040  -7.922  0.00  0.00    -0.192 F 
ATOM      9  F   *** d   1      -0.877   1.953  -7.326  0.00  0.00    -0.192 F 
BRANCH   7  10
ATOM     10  C   *** d   1       0.151   0.147  -6.337  0.00  0.00     0.396 C 
ATOM     11  F   *** d   1       1.484   0.031  -6.434  0.00  0.00    -0.187 F 
ATOM     12  F   *** d   1      -0.334  -1.093  -6.186  0.00  0.00    -0.187 F 
BRANCH  10  13
ATOM     13  C   *** d   1      -0.222   0.981  -5.081  0.00  0.00     0.222 C 
ATOM     14  O   *** d   1      -1.288   0.917  -4.502  0.00  0.00    -0.645 OA
BRANCH  13  15
ATOM     15  O   *** d   1       0.799   1.787  -4.708  0.00  0.00    -0.772 OA
ATOM     16  H   *** d   1       0.610   2.288  -3.899  0.00  0.00     0.167 HD
ENDBRANCH  13  15
ENDBRANCH  10  13
ENDBRANCH   7  10
ENDBRANCH   4   7
ENDBRANCH   3   4
BRANCH   3  17
ATOM     17  C   *** d   1       0.027  -0.727 -10.828  0.00  0.00     0.387 C 
ATOM     18  F   *** d   1       0.586  -0.085 -11.836  0.00  0.00    -0.192 F 
ATOM     19  F   *** d   1      -1.170  -0.183 -10.707  0.00  0.00    -0.192 F 
BRANCH  17  20
ATOM     20  C   *** d   1      -0.155  -2.180 -11.239  0.00  0.00     0.409 C 
ATOM     21  F   *** d   1       0.836  -2.889 -10.724  0.00  0.00    -0.189 F 
ATOM     22  F   *** d   1      -0.001  -2.265 -12.551  0.00  0.00    -0.189 F 
BRANCH  20  23
ATOM     23  C   *** d   1      -1.458  -2.841 -10.867  0.00  0.00     0.461 C 
ATOM     24  F   *** d   1      -2.436  -2.413 -11.617  0.00  0.00    -0.165 F 
ATOM     25  F   *** d   1      -1.791  -2.620  -9.623  0.00  0.00    -0.165 F 
ATOM     26  F   *** d   1      -1.395  -4.134 -11.032  0.00  0.00    -0.165 F 
ENDBRANCH  20  23
ENDBRANCH  17  20
ENDBRANCH   3  17
TORSDOF 8
ENDMDL
MODEL 11
REMARK VINA RESULT:      -7.2      2.919      4.742
REMARK  8 active torsions:
REMARK  status: ('A' for Active; 'I' for Inactive)
REMARK    1  A    between atoms: C_3  and  C_4 
REMARK    2  A    between atoms: C_3  and  C_17 
REMARK    3  A    between atoms: C_4  and  C_7 
REMARK    4  A    between atoms: C_7  and  C_10 
REMARK    5  A    between atoms: C_10  and  C_13 
REMARK    6  A    between atoms: C_13  and  O_15 
REMARK    7  A    between atoms: C_17  and  C_20 
REMARK    8  A    between atoms: C_20  and  C_23 
ROOT
ATOM      1  F   *** d   1       1.001   0.128  -7.056  0.00  0.00    -0.192 F 
ATOM      2  F   *** d   1       0.154   1.616  -5.851  0.00  0.00    -0.192 F 
ATOM      3  C   *** d   1      -0.066   0.897  -6.936  0.00  0.00     0.384 C 
ENDROOT
BRANCH   3   4
ATOM      4  C   *** d   1      -0.113   1.835  -8.132  0.00  0.00     0.385 C 
ATOM      5  F   *** d   1      -1.034   2.755  -7.913  0.00  0.00    -0.192 F 
ATOM      6  F   *** d   1      -0.555   1.159  -9.178  0.00  0.00    -0.192 F 
BRANCH   4   7
ATOM      7  C   *** d   1       1.174   2.531  -8.533  0.00  0.00     0.388 C 
ATOM      8  F   *** d   1       2.017   1.642  -9.030  0.00  0.00    -0.192 F 
ATOM      9  F   *** d   1       1.777   2.993  -7.453  0.00  0.00    -0.192 F 
BRANCH   7  10
ATOM     10  C   *** d   1       1.092   3.649  -9.550  0.00  0.00     0.396 C 
ATOM     11  F   *** d   1       0.661   4.772  -8.954  0.00  0.00    -0.187 F 
ATOM     12  F   *** d   1       0.183   3.336 -10.484  0.00  0.00    -0.187 F 
BRANCH  10  13
ATOM     13  C   *** d   1       2.454   3.905 -10.249  0.00  0.00     0.222 C 
ATOM     14  O   *** d   1       3.434   4.369  -9.701  0.00  0.00    -0.645 OA
BRANCH  13  15
ATOM     15  O   *** d   1       2.412   3.538 -11.550  0.00  0.00    -0.772 OA
ATOM     16  H   *** d   1       1.857   4.122 -12.091  0.00  0.00     0.167 HD
ENDBRANCH  13  15
ENDBRANCH  10  13
ENDBRANCH   7  10
ENDBRANCH   4   7
ENDBRANCH   3   4
BRANCH   3  17
ATOM     17  C   *** d   1      -1.274   0.008  -6.688  0.00  0.00     0.387 C 
ATOM     18  F   *** d   1      -2.308   0.512  -7.334  0.00  0.00    -0.192 F 
ATOM     19  F   *** d   1      -1.605   0.089  -5.412  0.00  0.00    -0.192 F 
BRANCH  17  20
ATOM     20  C   *** d   1      -1.163  -1.464  -7.053  0.00  0.00     0.409 C 
ATOM     21  F   *** d   1      -2.071  -2.137  -6.364  0.00  0.00    -0.189 F 
ATOM     22  F   *** d   1       0.005  -1.914  -6.624  0.00  0.00    -0.189 F 
BRANCH  20  23
ATOM     23  C   *** d   1      -1.307  -1.824  -8.510  0.00  0.00     0.461 C 
ATOM     24  F   *** d   1      -1.694  -3.061  -8.655  0.00  0.00    -0.165 F 
ATOM     25  F   *** d   1      -0.188  -1.682  -9.170  0.00  0.00    -0.165 F 
ATOM     26  F   *** d   1      -2.203  -1.076  -9.093  0.00  0.00    -0.165 F 
ENDBRANCH  20  23
ENDBRANCH  17  20
ENDBRANCH   3  17
TORSDOF 8
ENDMDL
MODEL 12
REMARK VINA RESULT:      -7.1      2.962      4.779
REMARK  8 active torsions:
REMARK  status: ('A' for Active; 'I' for Inactive)
REMARK    1  A    between atoms: C_3  and  C_4 
REMARK    2  A    between atoms: C_3  and  C_17 
REMARK    3  A    between atoms: C_4  and  C_7 
REMARK    4  A    between atoms: C_7  and  C_10 
REMARK    5  A    between atoms: C_10  and  C_13 
REMARK    6  A    between atoms: C_13  and  O_15 
REMARK    7  A    between atoms: C_17  and  C_20 
REMARK    8  A    between atoms: C_20  and  C_23 
ROOT
ATOM      1  F   *** d   1      -0.048   0.527  -9.387  0.00  0.00    -0.192 F 
ATOM      2  F   *** d   1       1.718  -0.280  -8.604  0.00  0.00    -0.192 F 
ATOM      3  C   *** d   1       0.696   0.498  -8.297  0.00  0.00     0.384 C 
ENDROOT
BRANCH   3   4
ATOM      4  C   *** d   1       1.221   1.902  -8.043  0.00  0.00     0.385 C 
ATOM      5  F   *** d   1       2.354   2.057  -8.703  0.00  0.00    -0.192 F 
ATOM      6  F   *** d   1       1.557   2.002  -6.769  0.00  0.00    -0.192 F 
BRANCH   4   7
ATOM      7  C   *** d   1       0.309   3.068  -8.379  0.00  0.00     0.388 C 
ATOM      8  F   *** d   1       0.474   4.026  -7.483  0.00  0.00    -0.192 F 
ATOM      9  F   *** d   1      -0.949   2.694  -8.237  0.00  0.00    -0.192 F 
BRANCH   7  10
ATOM     10  C   *** d   1       0.463   3.725  -9.734  0.00  0.00     0.396 C 
ATOM     11  F   *** d   1      -0.136   2.975 -10.671  0.00  0.00    -0.187 F 
ATOM     12  F   *** d   1       1.762   3.782 -10.057  0.00  0.00    -0.187 F 
BRANCH  10  13
ATOM     13  C   *** d   1      -0.117   5.166  -9.753  0.00  0.00     0.222 C 
ATOM     14  O   *** d   1       0.535   6.168  -9.969  0.00  0.00    -0.645 OA
BRANCH  13  15
ATOM     15  O   *** d   1      -1.446   5.161  -9.505  0.00  0.00    -0.772 OA
ATOM     16  H   *** d   1      -1.970   5.515 -10.241  0.00  0.00     0.167 HD
ENDBRANCH  13  15
ENDBRANCH  10  13
ENDBRANCH   7  10
ENDBRANCH   4   7
ENDBRANCH   3   4
BRANCH   3  17
ATOM     17  C   *** d   1      -0.100  -0.169  -7.187  0.00  0.00     0.387 C 
ATOM     18  F   *** d   1      -0.379   0.734  -6.267  0.00  0.00    -0.192 F 
ATOM     19  F   *** d   1       0.677  -1.043  -6.574  0.00  0.00    -0.192 F 
BRANCH  17  20
ATOM     20  C   *** d   1      -1.395  -0.874  -7.563  0.00  0.00     0.409 C 
ATOM     21  F   *** d   1      -2.182  -0.005  -8.176  0.00  0.00    -0.189 F 
ATOM     22  F   *** d   1      -2.032  -1.198  -6.449  0.00  0.00    -0.189 F 
BRANCH  20  23
ATOM     23  C   *** d   1      -1.281  -2.106  -8.425  0.00  0.00     0.461 C 
ATOM     24  F   *** d   1      -0.036  -2.371  -8.708  0.00  0.00    -0.165 F 
ATOM     25  F   *** d   1      -1.924  -1.982  -9.556  0.00  0.00    -0.165 F 
ATOM     26  F   *** d   1      -1.762  -3.154  -7.814  0.00  0.00    -0.165 F 
ENDBRANCH  20  23
ENDBRANCH  17  20
ENDBRANCH   3  17
TORSDOF 8
ENDMDL
MODEL 13
REMARK VINA RESULT:      -7.1     19.981     22.581
REMARK  8 active torsions:
REMARK  status: ('A' for Active; 'I' for Inactive)
REMARK    1  A    between atoms: C_3  and  C_4 
REMARK    2  A    between atoms: C_3  and  C_17 
REMARK    3  A    between atoms: C_4  and  C_7 
REMARK    4  A    between atoms: C_7  and  C_10 
REMARK    5  A    between atoms: C_10  and  C_13 
REMARK    6  A    between atoms: C_13  and  O_15 
REMARK    7  A    between atoms: C_17  and  C_20 
REMARK    8  A    between atoms: C_20  and  C_23 
ROOT
ATOM      1  F   *** d   1       6.914  -6.475  13.716  0.00  0.00    -0.192 F 
ATOM      2  F   *** d   1       7.288  -4.636  12.788  0.00  0.00    -0.192 F 
ATOM      3  C   *** d   1       6.653  -5.782  12.622  0.00  0.00     0.384 C 
ENDROOT
BRANCH   3   4
ATOM      4  C   *** d   1       7.273  -6.509  11.440  0.00  0.00     0.385 C 
ATOM      5  F   *** d   1       6.579  -7.607  11.205  0.00  0.00    -0.192 F 
ATOM      6  F   *** d   1       8.472  -6.938  11.793  0.00  0.00    -0.192 F 
BRANCH   4   7
ATOM      7  C   *** d   1       7.414  -5.744  10.137  0.00  0.00     0.388 C 
ATOM      8  F   *** d   1       7.586  -4.459  10.398  0.00  0.00    -0.192 F 
ATOM      9  F   *** d   1       6.275  -5.798   9.472  0.00  0.00    -0.192 F 
BRANCH   7  10
ATOM     10  C   *** d   1       8.535  -6.137   9.198  0.00  0.00     0.396 C 
ATOM     11  F   *** d   1       8.648  -7.474   9.163  0.00  0.00    -0.187 F 
ATOM     12  F   *** d   1       9.697  -5.664   9.668  0.00  0.00    -0.187 F 
BRANCH  10  13
ATOM     13  C   *** d   1       8.317  -5.582   7.764  0.00  0.00     0.222 C 
ATOM     14  O   *** d   1       8.326  -4.403   7.473  0.00  0.00    -0.645 OA
BRANCH  13  15
ATOM     15  O   *** d   1       8.123  -6.585   6.877  0.00  0.00    -0.772 OA
ATOM     16  H   *** d   1       8.337  -7.458   7.239  0.00  0.00     0.167 HD
ENDBRANCH  13  15
ENDBRANCH  10  13
ENDBRANCH   7  10
ENDBRANCH   4   7
ENDBRANCH   3   4
BRANCH   3  17
ATOM     17  C   *** d   1       5.159  -5.503  12.575  0.00  0.00     0.387 C 
ATOM     18  F   *** d   1       4.551  -6.549  12.048  0.00  0.00    -0.192 F 
ATOM     19  F   *** d   1       4.938  -4.522  11.720  0.00  0.00    -0.192 F 
BRANCH  17  20
ATOM     20  C   *** d   1       4.456  -5.158  13.879  0.00  0.00     0.409 C 
ATOM     21  F   *** d   1       5.239  -4.351  14.577  0.00  0.00    -0.189 F 
ATOM     22  F   *** d   1       4.357  -6.261  14.604  0.00  0.00    -0.189 F 
BRANCH  20  23
ATOM     23  C   *** d   1       3.090  -4.529  13.778  0.00  0.00     0.461 C 
ATOM     24  F   *** d   1       3.157  -3.335  13.258  0.00  0.00    -0.165 F 
ATOM     25  F   *** d   1       2.506  -4.419  14.942  0.00  0.00    -0.165 F 
ATOM     26  F   *** d   1       2.303  -5.232  13.010  0.00  0.00    -0.165 F 
ENDBRANCH  20  23
ENDBRANCH  17  20
ENDBRANCH   3  17
TORSDOF 8
ENDMDL
MODEL 14
REMARK VINA RESULT:      -7.0      3.785      5.463
REMARK  8 active torsions:
REMARK  status: ('A' for Active; 'I' for Inactive)
REMARK    1  A    between atoms: C_3  and  C_4 
REMARK    2  A    between atoms: C_3  and  C_17 
REMARK    3  A    between atoms: C_4  and  C_7 
REMARK    4  A    between atoms: C_7  and  C_10 
REMARK    5  A    between atoms: C_10  and  C_13 
REMARK    6  A    between atoms: C_13  and  O_15 
REMARK    7  A    between atoms: C_17  and  C_20 
REMARK    8  A    between atoms: C_20  and  C_23 
ROOT
ATOM      1  F   *** d   1       0.617   0.652  -7.686  0.00  0.00    -0.192 F 
ATOM      2  F   *** d   1      -0.294   2.117  -8.870  0.00  0.00    -0.192 F 
ATOM      3  C   *** d   1       0.469   1.042  -8.939  0.00  0.00     0.384 C 
ENDROOT
BRANCH   3   4
ATOM      4  C   *** d   1       1.832   1.455  -9.471  0.00  0.00     0.385 C 
ATOM      5  F   *** d   1       2.588   0.378  -9.580  0.00  0.00    -0.192 F 
ATOM      6  F   *** d   1       2.433   2.197  -8.558  0.00  0.00    -0.192 F 
BRANCH   4   7
ATOM      7  C   *** d   1       1.877   2.207 -10.788  0.00  0.00     0.388 C 
ATOM      8  F   *** d   1       0.751   2.882 -10.947  0.00  0.00    -0.192 F 
ATOM      9  F   *** d   1       1.889   1.342 -11.786  0.00  0.00    -0.192 F 
BRANCH   7  10
ATOM     10  C   *** d   1       2.999   3.200 -11.004  0.00  0.00     0.396 C 
ATOM     11  F   *** d   1       4.179   2.611 -10.756  0.00  0.00    -0.187 F 
ATOM     12  F   *** d   1       2.879   4.206 -10.126  0.00  0.00    -0.187 F 
BRANCH  10  13
ATOM     13  C   *** d   1       2.988   3.791 -12.440  0.00  0.00     0.222 C 
ATOM     14  O   *** d   1       3.456   3.239 -13.415  0.00  0.00    -0.645 OA
BRANCH  13  15
ATOM     15  O   *** d   1       2.383   5.000 -12.466  0.00  0.00    -0.772 OA
ATOM     16  H   *** d   1       1.566   5.003 -12.989  0.00  0.00     0.167 HD
ENDBRANCH  13  15
ENDBRANCH  10  13
ENDBRANCH   7  10
ENDBRANCH   4   7
ENDBRANCH   3   4
BRANCH   3  17
ATOM     17  C   *** d   1      -0.287  -0.038  -9.694  0.00  0.00     0.387 C 
ATOM     18  F   *** d   1       0.561  -0.996 -10.021  0.00  0.00    -0.192 F 
ATOM     19  F   *** d   1      -0.693   0.457 -10.849  0.00  0.00    -0.192 F 
BRANCH  17  20
ATOM     20  C   *** d   1      -1.483  -0.682  -9.011  0.00  0.00     0.409 C 
ATOM     21  F   *** d   1      -2.435  -0.863  -9.912  0.00  0.00    -0.189 F 
ATOM     22  F   *** d   1      -1.984   0.182  -8.143  0.00  0.00    -0.189 F 
BRANCH  20  23
ATOM     23  C   *** d   1      -1.246  -1.991  -8.299  0.00  0.00     0.461 C 
ATOM     24  F   *** d   1       0.016  -2.150  -8.012  0.00  0.00    -0.165 F 
ATOM     25  F   *** d   1      -1.620  -3.020  -9.012  0.00  0.00    -0.165 F 
ATOM     26  F   *** d   1      -1.899  -2.038  -7.170  0.00  0.00    -0.165 F 
ENDBRANCH  20  23
ENDBRANCH  17  20
ENDBRANCH   3  17
TORSDOF 8
ENDMDL
MODEL 15
REMARK VINA RESULT:      -7.0      3.669      5.536
REMARK  8 active torsions:
REMARK  status: ('A' for Active; 'I' for Inactive)
REMARK    1  A    between atoms: C_3  and  C_4 
REMARK    2  A    between atoms: C_3  and  C_17 
REMARK    3  A    between atoms: C_4  and  C_7 
REMARK    4  A    between atoms: C_7  and  C_10 
REMARK    5  A    between atoms: C_10  and  C_13 
REMARK    6  A    between atoms: C_13  and  O_15 
REMARK    7  A    between atoms: C_17  and  C_20 
REMARK    8  A    between atoms: C_20  and  C_23 
ROOT
ATOM      1  F   *** d   1       1.615   1.253  -9.967  0.00  0.00    -0.192 F 
ATOM      2  F   *** d   1       0.090   2.685  -9.877  0.00  0.00    -0.192 F 
ATOM      3  C   *** d   1       1.268   2.377  -9.366  0.00  0.00     0.384 C 
ENDROOT
BRANCH   3   4
ATOM      4  C   *** d   1       1.087   2.086  -7.884  0.00  0.00     0.385 C 
ATOM      5  F   *** d   1       0.928   3.230  -7.244  0.00  0.00    -0.192 F 
ATOM      6  F   *** d   1       2.216   1.590  -7.412  0.00  0.00    -0.192 F 
BRANCH   4   7
ATOM      7  C   *** d   1      -0.039   1.152  -7.481  0.00  0.00     0.388 C 
ATOM      8  F   *** d   1      -0.356   0.379  -8.506  0.00  0.00    -0.192 F 
ATOM      9  F   *** d   1      -1.131   1.858  -7.247  0.00  0.00    -0.192 F 
BRANCH   7  10
ATOM     10  C   *** d   1       0.190   0.225  -6.307  0.00  0.00     0.396 C 
ATOM     11  F   *** d   1       1.410  -0.327  -6.398  0.00  0.00    -0.187 F 
ATOM     12  F   *** d   1      -0.693  -0.783  -6.356  0.00  0.00    -0.187 F 
BRANCH  10  13
ATOM     13  C   *** d   1       0.034   0.955  -4.946  0.00  0.00     0.222 C 
ATOM     14  O   *** d   1       0.832   1.753  -4.496  0.00  0.00    -0.645 OA
BRANCH  13  15
ATOM     15  O   *** d   1      -1.112   0.592  -4.325  0.00  0.00    -0.772 OA
ATOM     16  H   *** d   1      -1.052   0.643  -3.358  0.00  0.00     0.167 HD
ENDBRANCH  13  15
ENDBRANCH  10  13
ENDBRANCH   7  10
ENDBRANCH   4   7
ENDBRANCH   3   4
BRANCH   3  17
ATOM     17  C   *** d   1       2.261   3.459  -9.757  0.00  0.00     0.387 C 
ATOM     18  F   *** d   1       3.119   3.621  -8.767  0.00  0.00    -0.192 F 
ATOM     19  F   *** d   1       1.622   4.611  -9.839  0.00  0.00    -0.192 F 
BRANCH  17  20
ATOM     20  C   *** d   1       3.055   3.268 -11.040  0.00  0.00     0.409 C 
ATOM     21  F   *** d   1       3.495   2.021 -11.080  0.00  0.00    -0.189 F 
ATOM     22  F   *** d   1       4.141   4.021 -10.975  0.00  0.00    -0.189 F 
BRANCH  20  23
ATOM     23  C   *** d   1       2.345   3.565 -12.337  0.00  0.00     0.461 C 
ATOM     24  F   *** d   1       3.083   3.244 -13.363  0.00  0.00    -0.165 F 
ATOM     25  F   *** d   1       2.035   4.830 -12.456  0.00  0.00    -0.165 F 
ATOM     26  F   *** d   1       1.239   2.880 -12.437  0.00  0.00    -0.165 F 
ENDBRANCH  20  23
ENDBRANCH  17  20
ENDBRANCH   3  17
TORSDOF 8
ENDMDL
MODEL 16
REMARK VINA RESULT:      -7.0      2.982      4.623
REMARK  8 active torsions:
REMARK  status: ('A' for Active; 'I' for Inactive)
REMARK    1  A    between atoms: C_3  and  C_4 
REMARK    2  A    between atoms: C_3  and  C_17 
REMARK    3  A    between atoms: C_4  and  C_7 
REMARK    4  A    between atoms: C_7  and  C_10 
REMARK    5  A    between atoms: C_10  and  C_13 
REMARK    6  A    between atoms: C_13  and  O_15 
REMARK    7  A    between atoms: C_17  and  C_20 
REMARK    8  A    between atoms: C_20  and  C_23 
ROOT
ATOM      1  F   *** d   1      -0.053  -0.016 -10.424  0.00  0.00    -0.192 F 
ATOM      2  F   *** d   1       1.677  -0.962  -9.721  0.00  0.00    -0.192 F 
ATOM      3  C   *** d   1       0.915   0.099  -9.533  0.00  0.00     0.384 C 
ENDROOT
BRANCH   3   4
ATOM      4  C   *** d   1       1.726   1.339  -9.871  0.00  0.00     0.385 C 
ATOM      5  F   *** d   1       2.473   1.082 -10.928  0.00  0.00    -0.192 F 
ATOM      6  F   *** d   1       2.589   1.555  -8.894  0.00  0.00    -0.192 F 
BRANCH   4   7
ATOM      7  C   *** d   1       0.970   2.631 -10.121  0.00  0.00     0.388 C 
ATOM      8  F   *** d   1      -0.317   2.364 -10.268  0.00  0.00    -0.192 F 
ATOM      9  F   *** d   1       1.339   3.135 -11.285  0.00  0.00    -0.192 F 
BRANCH   7  10
ATOM     10  C   *** d   1       1.059   3.723  -9.077  0.00  0.00     0.396 C 
ATOM     11  F   *** d   1       2.191   4.424  -9.251  0.00  0.00    -0.187 F 
ATOM     12  F   *** d   1       1.132   3.170  -7.859  0.00  0.00    -0.187 F 
BRANCH  10  13
ATOM     13  C   *** d   1      -0.168   4.673  -9.119  0.00  0.00     0.222 C 
ATOM     14  O   *** d   1      -0.331   5.553  -9.939  0.00  0.00    -0.645 OA
BRANCH  13  15
ATOM     15  O   *** d   1      -1.040   4.388  -8.124  0.00  0.00    -0.772 OA
ATOM     16  H   *** d   1      -1.266   5.163  -7.585  0.00  0.00     0.167 HD
ENDBRANCH  13  15
ENDBRANCH  10  13
ENDBRANCH   7  10
ENDBRANCH   4   7
ENDBRANCH   3   4
BRANCH   3  17
ATOM     17  C   *** d   1       0.303   0.012  -8.144  0.00  0.00     0.387 C 
ATOM     18  F   *** d   1      -0.733   0.828  -8.088  0.00  0.00    -0.192 F 
ATOM     19  F   *** d   1       1.163   0.502  -7.270  0.00  0.00    -0.192 F 
BRANCH  17  20
ATOM     20  C   *** d   1      -0.147  -1.353  -7.647  0.00  0.00     0.409 C 
ATOM     21  F   *** d   1      -0.647  -1.213  -6.430  0.00  0.00    -0.189 F 
ATOM     22  F   *** d   1       0.924  -2.117  -7.499  0.00  0.00    -0.189 F 
BRANCH  20  23
ATOM     23  C   *** d   1      -1.151  -2.096  -8.492  0.00  0.00     0.461 C 
ATOM     24  F   *** d   1      -1.771  -3.008  -7.797  0.00  0.00    -0.165 F 
ATOM     25  F   *** d   1      -0.595  -2.692  -9.515  0.00  0.00    -0.165 F 
ATOM     26  F   *** d   1      -2.063  -1.289  -8.958  0.00  0.00    -0.165 F 
ENDBRANCH  20  23
ENDBRANCH  17  20
ENDBRANCH   3  17
TORSDOF 8
ENDMDL
MODEL 17
REMARK VINA RESULT:      -6.9      3.259      6.443
REMARK  8 active torsions:
REMARK  status: ('A' for Active; 'I' for Inactive)
REMARK    1  A    between atoms: C_3  and  C_4 
REMARK    2  A    between atoms: C_3  and  C_17 
REMARK    3  A    between atoms: C_4  and  C_7 
REMARK    4  A    between atoms: C_7  and  C_10 
REMARK    5  A    between atoms: C_10  and  C_13 
REMARK    6  A    between atoms: C_13  and  O_15 
REMARK    7  A    between atoms: C_17  and  C_20 
REMARK    8  A    between atoms: C_20  and  C_23 
ROOT
ATOM      1  F   *** d   1      -2.197  -1.155  -9.733  0.00  0.00    -0.192 F 
ATOM      2  F   *** d   1      -1.277  -2.698  -8.659  0.00  0.00    -0.192 F 
ATOM      3  C   *** d   1      -1.017  -1.684  -9.462  0.00  0.00     0.384 C 
ENDROOT
BRANCH   3   4
ATOM      4  C   *** d   1      -0.435  -2.232 -10.755  0.00  0.00     0.385 C 
ATOM      5  F   *** d   1       0.733  -2.789 -10.492  0.00  0.00    -0.192 F 
ATOM      6  F   *** d   1      -0.152  -1.217 -11.552  0.00  0.00    -0.192 F 
BRANCH   4   7
ATOM      7  C   *** d   1      -1.272  -3.225 -11.541  0.00  0.00     0.388 C 
ATOM      8  F   *** d   1      -2.366  -2.626 -11.980  0.00  0.00    -0.192 F 
ATOM      9  F   *** d   1      -1.713  -4.166 -10.727  0.00  0.00    -0.192 F 
BRANCH   7  10
ATOM     10  C   *** d   1      -0.642  -3.891 -12.746  0.00  0.00     0.396 C 
ATOM     11  F   *** d   1       0.340  -3.116 -13.230  0.00  0.00    -0.187 F 
ATOM     12  F   *** d   1      -1.557  -4.008 -13.719  0.00  0.00    -0.187 F 
BRANCH  10  13
ATOM     13  C   *** d   1      -0.092  -5.304 -12.411  0.00  0.00     0.222 C 
ATOM     14  O   *** d   1       0.931  -5.516 -11.791  0.00  0.00    -0.645 OA
BRANCH  13  15
ATOM     15  O   *** d   1      -0.903  -6.272 -12.894  0.00  0.00    -0.772 OA
ATOM     16  H   *** d   1      -1.403  -6.730 -12.199  0.00  0.00     0.167 HD
ENDBRANCH  13  15
ENDBRANCH  10  13
ENDBRANCH   7  10
ENDBRANCH   4   7
ENDBRANCH   3   4
BRANCH   3  17
ATOM     17  C   *** d   1      -0.196  -0.660  -8.696  0.00  0.00     0.387 C 
ATOM     18  F   *** d   1      -0.551   0.548  -9.092  0.00  0.00    -0.192 F 
ATOM     19  F   *** d   1       1.069  -0.773  -9.060  0.00  0.00    -0.192 F 
BRANCH  17  20
ATOM     20  C   *** d   1      -0.253  -0.693  -7.176  0.00  0.00     0.409 C 
ATOM     21  F   *** d   1       0.612   0.190  -6.705  0.00  0.00    -0.189 F 
ATOM     22  F   *** d   1       0.190  -1.871  -6.767  0.00  0.00    -0.189 F 
BRANCH  20  23
ATOM     23  C   *** d   1      -1.593  -0.438  -6.534  0.00  0.00     0.461 C 
ATOM     24  F   *** d   1      -1.457   0.131  -5.368  0.00  0.00    -0.165 F 
ATOM     25  F   *** d   1      -2.278  -1.537  -6.357  0.00  0.00    -0.165 F 
ATOM     26  F   *** d   1      -2.321   0.363  -7.263  0.00  0.00    -0.165 F 
ENDBRANCH  20  23
ENDBRANCH  17  20
ENDBRANCH   3  17
TORSDOF 8
ENDMDL
MODEL 18
REMARK VINA RESULT:      -6.9      3.792      5.416
REMARK  8 active torsions:
REMARK  status: ('A' for Active; 'I' for Inactive)
REMARK    1  A    between atoms: C_3  and  C_4 
REMARK    2  A    between atoms: C_3  and  C_17 
REMARK    3  A    between atoms: C_4  and  C_7 
REMARK    4  A    between atoms: C_7  and  C_10 
REMARK    5  A    between atoms: C_10  and  C_13 
REMARK    6  A    between atoms: C_13  and  O_15 
REMARK    7  A    between atoms: C_17  and  C_20 
REMARK    8  A    between atoms: C_20  and  C_23 
ROOT
ATOM      1  F   *** d   1       3.152   1.170  -8.816  0.00  0.00    -0.192 F 
ATOM      2  F   *** d   1       2.597   1.023 -10.829  0.00  0.00    -0.192 F 
ATOM      3  C   *** d   1       2.261   1.600  -9.690  0.00  0.00     0.384 C 
ENDROOT
BRANCH   3   4
ATOM      4  C   *** d   1       0.896   1.076  -9.271  0.00  0.00     0.385 C 
ATOM      5  F   *** d   1       0.767  -0.165  -9.703  0.00  0.00    -0.192 F 
ATOM      6  F   *** d   1      -0.032   1.756  -9.921  0.00  0.00    -0.192 F 
BRANCH   4   7
ATOM      7  C   *** d   1       0.551   1.107  -7.794  0.00  0.00     0.388 C 
ATOM      8  F   *** d   1       0.958   2.252  -7.273  0.00  0.00    -0.192 F 
ATOM      9  F   *** d   1       1.253   0.186  -7.161  0.00  0.00    -0.192 F 
BRANCH   7  10
ATOM     10  C   *** d   1      -0.902   0.956  -7.398  0.00  0.00     0.396 C 
ATOM     11  F   *** d   1      -1.523   0.135  -8.260  0.00  0.00    -0.187 F 
ATOM     12  F   *** d   1      -1.515   2.145  -7.490  0.00  0.00    -0.187 F 
BRANCH  10  13
ATOM     13  C   *** d   1      -1.061   0.426  -5.947  0.00  0.00     0.222 C 
ATOM     14  O   *** d   1      -0.929   1.104  -4.948  0.00  0.00    -0.645 OA
BRANCH  13  15
ATOM     15  O   *** d   1      -1.373  -0.890  -5.939  0.00  0.00    -0.772 OA
ATOM     16  H   *** d   1      -0.809  -1.409  -5.344  0.00  0.00     0.167 HD
ENDBRANCH  13  15
ENDBRANCH  10  13
ENDBRANCH   7  10
ENDBRANCH   4   7
ENDBRANCH   3   4
BRANCH   3  17
ATOM     17  C   *** d   1       2.424   3.103  -9.844  0.00  0.00     0.387 C 
ATOM     18  F   *** d   1       3.034   3.573  -8.773  0.00  0.00    -0.192 F 
ATOM     19  F   *** d   1       1.228   3.664  -9.822  0.00  0.00    -0.192 F 
BRANCH  17  20
ATOM     20  C   *** d   1       3.162   3.618 -11.070  0.00  0.00     0.409 C 
ATOM     21  F   *** d   1       4.211   2.841 -11.285  0.00  0.00    -0.189 F 
ATOM     22  F   *** d   1       3.662   4.810 -10.786  0.00  0.00    -0.189 F 
BRANCH  20  23
ATOM     23  C   *** d   1       2.375   3.723 -12.353  0.00  0.00     0.461 C 
ATOM     24  F   *** d   1       2.084   4.964 -12.627  0.00  0.00    -0.165 F 
ATOM     25  F   *** d   1       1.252   3.056 -12.302  0.00  0.00    -0.165 F 
ATOM     26  F   *** d   1       3.060   3.263 -13.364  0.00  0.00    -0.165 F 
ENDBRANCH  20  23
ENDBRANCH  17  20
ENDBRANCH   3  17
TORSDOF 8
ENDMDL
MODEL 19
REMARK VINA RESULT:      -6.8     19.839     22.161
REMARK  8 active torsions:
REMARK  status: ('A' for Active; 'I' for Inactive)
REMARK    1  A    between atoms: C_3  and  C_4 
REMARK    2  A    between atoms: C_3  and  C_17 
REMARK    3  A    between atoms: C_4  and  C_7 
REMARK    4  A    between atoms: C_7  and  C_10 
REMARK    5  A    between atoms: C_10  and  C_13 
REMARK    6  A    between atoms: C_13  and  O_15 
REMARK    7  A    between atoms: C_17  and  C_20 
REMARK    8  A    between atoms: C_20  and  C_23 
ROOT
ATOM      1  F   *** d   1       5.011  -6.561  10.978  0.00  0.00    -0.192 F 
ATOM      2  F   *** d   1       5.608  -4.558  10.865  0.00  0.00    -0.192 F 
ATOM      3  C   *** d   1       5.893  -5.703  11.456  0.00  0.00     0.384 C 
ENDROOT
BRANCH   3   4
ATOM      4  C   *** d   1       5.644  -5.548  12.948  0.00  0.00     0.385 C 
ATOM      5  F   *** d   1       6.629  -4.841  13.471  0.00  0.00    -0.192 F 
ATOM      6  F   *** d   1       5.745  -6.736  13.516  0.00  0.00    -0.192 F 
BRANCH   4   7
ATOM      7  C   *** d   1       4.328  -4.931  13.384  0.00  0.00     0.388 C 
ATOM      8  F   *** d   1       3.922  -4.071  12.465  0.00  0.00    -0.192 F 
ATOM      9  F   *** d   1       4.525  -4.196  14.463  0.00  0.00    -0.192 F 
BRANCH   7  10
ATOM     10  C   *** d   1       3.159  -5.856  13.642  0.00  0.00     0.396 C 
ATOM     11  F   *** d   1       3.352  -6.520  14.792  0.00  0.00    -0.187 F 
ATOM     12  F   *** d   1       3.096  -6.778  12.671  0.00  0.00    -0.187 F 
BRANCH  10  13
ATOM     13  C   *** d   1       1.808  -5.092  13.688  0.00  0.00     0.222 C 
ATOM     14  O   *** d   1       1.442  -4.394  14.612  0.00  0.00    -0.645 OA
BRANCH  13  15
ATOM     15  O   *** d   1       1.091  -5.299  12.560  0.00  0.00    -0.772 OA
ATOM     16  H   *** d   1       1.039  -6.235  12.311  0.00  0.00     0.167 HD
ENDBRANCH  13  15
ENDBRANCH  10  13
ENDBRANCH   7  10
ENDBRANCH   4   7
ENDBRANCH   3   4
BRANCH   3  17
ATOM     17  C   *** d   1       7.280  -6.142  11.013  0.00  0.00     0.387 C 
ATOM     18  F   *** d   1       7.560  -7.297  11.586  0.00  0.00    -0.192 F 
ATOM     19  F   *** d   1       8.169  -5.299  11.507  0.00  0.00    -0.192 F 
BRANCH  17  20
ATOM     20  C   *** d   1       7.541  -6.281   9.522  0.00  0.00     0.409 C 
ATOM     21  F   *** d   1       6.377  -6.349   8.896  0.00  0.00    -0.189 F 
ATOM     22  F   *** d   1       8.123  -7.450   9.307  0.00  0.00    -0.189 F 
BRANCH  20  23
ATOM     23  C   *** d   1       8.372  -5.206   8.866  0.00  0.00     0.461 C 
ATOM     24  F   *** d   1       8.205  -5.202   7.573  0.00  0.00    -0.165 F 
ATOM     25  F   *** d   1       9.650  -5.357   9.097  0.00  0.00    -0.165 F 
ATOM     26  F   *** d   1       8.034  -4.021   9.296  0.00  0.00    -0.165 F 
ENDBRANCH  20  23
ENDBRANCH  17  20
ENDBRANCH   3  17
TORSDOF 8
ENDMDL
MODEL 20
REMARK VINA RESULT:      -6.8      3.853      5.718
REMARK  8 active torsions:
REMARK  status: ('A' for Active; 'I' for Inactive)
REMARK    1  A    between atoms: C_3  and  C_4 
REMARK    2  A    between atoms: C_3  and  C_17 
REMARK    3  A    between atoms: C_4  and  C_7 
REMARK    4  A    between atoms: C_7  and  C_10 
REMARK    5  A    between atoms: C_10  and  C_13 
REMARK    6  A    between atoms: C_13  and  O_15 
REMARK    7  A    between atoms: C_17  and  C_20 
REMARK    8  A    between atoms: C_20  and  C_23 
ROOT
ATOM      1  F   *** d   1      -0.315   2.183  -9.007  0.00  0.00    -0.192 F 
ATOM      2  F   *** d   1      -0.394   0.879 -10.643  0.00  0.00    -0.192 F 
ATOM      3  C   *** d   1       0.297   1.147  -9.550  0.00  0.00     0.384 C 
ENDROOT
BRANCH   3   4
ATOM      4  C   *** d   1       1.695   1.582  -9.960  0.00  0.00     0.385 C 
ATOM      5  F   *** d   1       2.203   0.669 -10.766  0.00  0.00    -0.192 F 
ATOM      6  F   *** d   1       2.472   1.559  -8.892  0.00  0.00    -0.192 F 
BRANCH   4   7
ATOM      7  C   *** d   1       1.845   2.940 -10.619  0.00  0.00     0.388 C 
ATOM      8  F   *** d   1       1.754   3.887  -9.701  0.00  0.00    -0.192 F 
ATOM      9  F   *** d   1       0.818   3.155 -11.420  0.00  0.00    -0.192 F 
BRANCH   7  10
ATOM     10  C   *** d   1       3.118   3.221 -11.389  0.00  0.00     0.396 C 
ATOM     11  F   *** d   1       3.048   2.652 -12.603  0.00  0.00    -0.187 F 
ATOM     12  F   *** d   1       4.155   2.655 -10.757  0.00  0.00    -0.187 F 
BRANCH  10  13
ATOM     13  C   *** d   1       3.393   4.743 -11.529  0.00  0.00     0.222 C 
ATOM     14  O   *** d   1       4.171   5.369 -10.838  0.00  0.00    -0.645 OA
BRANCH  13  15
ATOM     15  O   *** d   1       2.657   5.283 -12.527  0.00  0.00    -0.772 OA
ATOM     16  H   *** d   1       2.145   6.057 -12.244  0.00  0.00     0.167 HD
ENDBRANCH  13  15
ENDBRANCH  10  13
ENDBRANCH   7  10
ENDBRANCH   4   7
ENDBRANCH   3   4
BRANCH   3  17
ATOM     17  C   *** d   1       0.175  -0.035  -8.601  0.00  0.00     0.387 C 
ATOM     18  F   *** d   1       0.867   0.229  -7.509  0.00  0.00    -0.192 F 
ATOM     19  F   *** d   1       0.784  -1.075  -9.140  0.00  0.00    -0.192 F 
BRANCH  17  20
ATOM     20  C   *** d   1      -1.220  -0.471  -8.181  0.00  0.00     0.409 C 
ATOM     21  F   *** d   1      -1.974  -0.569  -9.264  0.00  0.00    -0.189 F 
ATOM     22  F   *** d   1      -1.763   0.500  -7.464  0.00  0.00    -0.189 F 
BRANCH  20  23
ATOM     23  C   *** d   1      -1.333  -1.759  -7.404  0.00  0.00     0.461 C 
ATOM     24  F   *** d   1      -1.651  -2.754  -8.184  0.00  0.00    -0.165 F 
ATOM     25  F   *** d   1      -2.236  -1.693  -6.461  0.00  0.00    -0.165 F 
ATOM     26  F   *** d   1      -0.198  -2.069  -6.839  0.00  0.00    -0.165 F 
ENDBRANCH  20  23
ENDBRANCH  17  20
ENDBRANCH   3  17
TORSDOF 8
ENDMDL
