REMARK  8 active torsions:
REMARK  status: ('A' for Active; 'I' for Inactive)
REMARK    1  A    between atoms: C_3  and  C_4 
REMARK    2  A    between atoms: C_3  and  C_17 
REMARK    3  A    between atoms: C_4  and  C_7 
REMARK    4  A    between atoms: C_7  and  C_10 
REMARK    5  A    between atoms: C_10  and  C_13 
REMARK    6  A    between atoms: C_13  and  O_15 
REMARK    7  A    between atoms: C_17  and  C_20 
REMARK    8  A    between atoms: C_20  and  C_23 
ROOT
ATOM      1  F   *** d   1       0.063  -0.892   0.049  0.00  0.00    -0.192 F 
ATOM      2  F   *** d   1       0.085   1.201   0.054  0.00  0.00    -0.192 F 
ATOM      3  C   *** d   1      -0.731   0.163   0.051  0.00  0.00     0.384 C 
ENDROOT
BRANCH   3   4
ATOM      4  C   *** d   1      -1.513   0.171  -1.253  0.00  0.00     0.385 C 
ATOM      5  F   *** d   1      -2.313   1.221  -1.261  0.00  0.00    -0.192 F 
ATOM      6  F   *** d   1      -2.325  -0.871  -1.262  0.00  0.00    -0.192 F 
BRANCH   4   7
ATOM      7  C   *** d   1      -0.724   0.161  -2.549  0.00  0.00     0.388 C 
ATOM      8  F   *** d   1       0.062  -0.902  -2.576  0.00  0.00    -0.192 F 
ATOM      9  F   *** d   1       0.106   1.188  -2.564  0.00  0.00    -0.192 F 
BRANCH   7  10
ATOM     10  C   *** d   1      -1.494   0.150  -3.852  0.00  0.00     0.396 C 
ATOM     11  F   *** d   1      -2.306   1.217  -3.907  0.00  0.00    -0.187 F 
ATOM     12  F   *** d   1      -2.280  -0.935  -3.896  0.00  0.00    -0.187 F 
BRANCH  10  13
ATOM     13  C   *** d   1      -0.553   0.131  -5.087  0.00  0.00     0.222 C 
ATOM     14  O   *** d   1      -0.013   1.112  -5.557  0.00  0.00    -0.645 OA
BRANCH  13  15
ATOM     15  O   *** d   1      -0.406  -1.124  -5.570  0.00  0.00    -0.772 OA
ATOM     16  H   *** d   1      -0.942  -1.778  -5.094  0.00  0.00     0.167 HD
ENDBRANCH  13  15
ENDBRANCH  10  13
ENDBRANCH   7  10
ENDBRANCH   4   7
ENDBRANCH   3   4
BRANCH   3  17
ATOM     17  C   *** d   1      -1.522   0.168   1.349  0.00  0.00     0.387 C 
ATOM     18  F   *** d   1      -2.337  -0.870   1.350  0.00  0.00    -0.192 F 
ATOM     19  F   *** d   1      -2.320   1.220   1.355  0.00  0.00    -0.192 F 
BRANCH  17  20
ATOM     20  C   *** d   1      -0.746   0.158   2.657  0.00  0.00     0.409 C 
ATOM     21  F   *** d   1       0.068   1.201   2.670  0.00  0.00    -0.189 F 
ATOM     22  F   *** d   1       0.045  -0.903   2.665  0.00  0.00    -0.189 F 
BRANCH  20  23
ATOM     23  C   *** d   1      -1.550   0.164   3.933  0.00  0.00     0.461 C 
ATOM     24  F   *** d   1      -2.313   1.219   4.005  0.00  0.00    -0.165 F 
ATOM     25  F   *** d   1      -0.792   0.153   4.998  0.00  0.00    -0.165 F 
ATOM     26  F   *** d   1      -2.335  -0.876   4.000  0.00  0.00    -0.165 F 
ENDBRANCH  20  23
ENDBRANCH  17  20
ENDBRANCH   3  17
TORSDOF 8
